 Q-Chem 6.2 (devel), Q-Chem, Inc., Pleasanton, CA (2024)
 Q-Chem 6.2.2 for Intel X86 EM64T Linux

User input:
--------------------------------------------------------------
$molecule
 0 1
C -0.6112786069 -1.7290824906 0.3408311261
C -1.9988876920 -1.2420879877 0.0598119224
C -2.2397375459 0.1970969759 -0.1391988467
C -1.2193907550 1.0957536421 0.0621842561
C 0.1351941130 0.6226189117 0.3930367067
C 0.4053380815 -0.8483137175 0.4731811283
O -2.9232818634 -2.0618793389 0.0104942501
O 1.0502310041 1.4222361168 0.6161644751
O -3.4415189747 0.7182554321 -0.4709040945
C -4.6171569533 -0.0855305671 -0.7167965500
O -1.5201641800 2.4016182075 -0.1215171332
C -0.7226844773 3.4695350222 0.4399239865
C -0.4975884029 -3.2230423657 0.4420887155
C 1.8365595883 -1.2123939652 0.7911372836
C 2.8012656165 -0.9686173294 -0.3438728965
C 3.8351700197 -0.1162044952 -0.3743761556
C 4.2257308366 0.8070476725 0.7464734146
C 4.7041315633 -0.0206795253 -1.6030259704
H 0.5406249883 -3.5521151979 0.4876881675
H -0.9866801715 -3.6956191230 -0.4150154191
H -1.0248138036 -3.5864165840 1.3319439858
H -4.4425174532 -0.8084921330 -1.5156460295
H -5.3663000870 0.6479663330 -1.0204654671
H -4.9326319855 -0.6088516245 0.1869550686
H 0.2080837540 3.5986286931 -0.1134382167
H -0.4997037598 3.2793026069 1.4921949860
H -1.3607476954 4.3495910720 0.3383489397
H 1.8815175465 -2.2663253189 1.0824727829
H 2.1414771539 -0.6255640547 1.6632637905
H 2.6159774573 -1.5723546924 -1.2339912580
H 3.6000756107 0.6958137776 1.6328269247
H 4.1451640330 1.8505363181 0.4155216515
H 5.2736475045 0.6400468380 1.0299267583
H 4.6787637554 0.9964572939 -2.0172252722
H 4.3811263854 -0.7189358290 -2.3805057843
H 5.7532373214 -0.2345310899 -1.3580105223
$end

$rem
   MEM_TOTAL                    80000
   METHOD			TPSS
   DFT_D 			D3_BJ
   BASIS			def2-ma-TZVP
   JOBTYPE			opt
$end

$opt
CONSTRAINT
  bend 6 14 15 114.1
  tors 1 6 14 15 111.8
  tors 4 3 9 10 0180
  tors 3 4 11 12 0180
ENDCONSTRAINT
$end
--------------------------------------------------------------

   17    -845.6453058696      2.90e-09  Convergence criterion met
 Total energy =  -845.64530587
   13    -845.6442776910      5.99e-09  Convergence criterion met
 Total energy =  -845.64427769
   12    -845.6442910728      6.37e-09  Convergence criterion met
 Total energy =  -845.64429107
   12    -845.6447393571      2.15e-09  Convergence criterion met
 Total energy =  -845.64473936
   12    -845.6451351841      3.06e-09  Convergence criterion met
 Total energy =  -845.64513518
   11    -845.6452791609      8.80e-09  Convergence criterion met
 Total energy =  -845.64527916
   11    -845.6453960852      8.50e-09  Convergence criterion met
 Total energy =  -845.64539609
   11    -845.6454767170      6.45e-09  Convergence criterion met
   11    -845.6455336291      7.27e-09  Convergence criterion met
 Total energy =  -845.64553363
   11    -845.6455639804      6.19e-09  Convergence criterion met
 Total energy =  -845.64556398
   11    -845.6455923694      4.78e-09  Convergence criterion met
 Total energy =  -845.64559237
   10    -845.6456042091      9.35e-09  Convergence criterion met
 Total energy =  -845.64560421
   10    -845.6456086435      3.50e-09  Convergence criterion met
 Total energy =  -845.64560864
   10    -845.6456102867      2.96e-09  Convergence criterion met
 Total energy =  -845.64561029

             Standard Nuclear Orientation (Angstroms)
    I     Atom           X                Y                Z
 ----------------------------------------------------------------
    1      C      -0.6362394907    -1.7459264194     0.2908552699
    2      C      -2.0191610506    -1.2225928656     0.0501291932
    3      C      -2.2353953636     0.2264849436    -0.0846367054
    4      C      -1.1860420282     1.0981063794     0.0907587672
    5      C       0.1360554692     0.5870284084     0.4906715974
    6      C       0.3916730844    -0.8882637582     0.4722306241
    7      O      -2.9550925597    -2.0257887455    -0.0429098281
    8      O       1.0290149281     1.3532350185     0.8684051257
    9      O      -3.4343249954     0.7858606699    -0.3640003099
   10      C      -4.6397924077     0.0182808361    -0.5773566186
   11      O      -1.4731555733     2.4126272727    -0.0381214219
   12      C      -0.4850010482     3.4559408054     0.1154549816
   13      C      -0.5426731565    -3.2444309683     0.3006904537
   14      C       1.8211708065    -1.2819511753     0.7580125136
   15      C       2.7810844190    -0.9753850359    -0.3653321770
   16      C       3.8111234127    -0.1173289248    -0.3537715975
   17      C       4.2050187824     0.7429109557     0.8150991299
   18      C       4.6754241218     0.0479909862    -1.5784690599
   19      H       0.4910653840    -3.5893340025     0.3293861990
   20      H      -1.0344159683    -3.6561778370    -0.5859458350
   21      H      -1.0786960765    -3.6553677998     1.1640288636
   22      H      -4.5247475375    -0.6748918268    -1.4124491428
   23      H      -5.3868904484     0.7794918958    -0.8096522161
   24      H      -4.9194447028    -0.5349753524     0.3205157958
   25      H       0.3691179719     3.2927894885    -0.5446506749
   26      H      -0.1409050559     3.5197049602     1.1486544625
   27      H      -1.0236064843     4.3612035332    -0.1706329050
   28      H       1.8602372011    -2.3522042277     0.9837280739
   29      H       2.1328743527    -0.7503582219     1.6624493679
   30      H       2.5948659429    -1.5308340334    -1.2861590091
   31      H       3.5867850635     0.5778480570     1.6979756538
   32      H       4.1167449137     1.8035612905     0.5460795848
   33      H       5.2562552524     0.5661361222     1.0796142350
   34      H       4.6479187954     1.0867283865    -1.9350518869
   35      H       4.3510425040    -0.6063392392    -2.3927355192
   36      H       5.7256114799    -0.1774538177    -1.3490005364
 ----------------------------------------------------------------

    9    -845.6456110649      6.26e-09  Convergence criterion met
 Total energy =  -845.64561106
 Final energy is   -845.64561106486531
 **  OPTIMIZATION CONVERGED  **

                    Orbital Energies (a.u.)
 --------------------------------------------------------------

 Alpha MOs
 -- Occupied --
-18.9228 -18.9221 -18.8791 -18.8790 -10.0792 -10.0787 -10.0566 -10.0561
-10.0377 -10.0370 -10.0160 -10.0144  -9.9970  -9.9916  -9.9889  -9.9801
 -9.9776  -9.9761  -1.0150  -0.9952  -0.9718  -0.9679  -0.7938  -0.7574
 -0.7394  -0.6984  -0.6705  -0.6679  -0.6375  -0.6305  -0.6097  -0.5888
 -0.5369  -0.5342  -0.4937  -0.4742  -0.4679  -0.4652  -0.4377  -0.4266
 -0.4179  -0.4111  -0.4057  -0.4019  -0.3991  -0.3925  -0.3889  -0.3851
 -0.3698  -0.3662  -0.3556  -0.3519  -0.3453  -0.3420  -0.3387  -0.3332
 -0.3255  -0.3201  -0.3157  -0.2990  -0.2973  -0.2878  -0.2490  -0.2261
 -0.2225  -0.2066  -0.1875

          Ground-State Mulliken Net Atomic Charges

     Atom                 Charge (a.u.)
  ----------------------------------------
      1 C                    -0.017480
      2 C                     0.298794
      3 C                     0.098570
      4 C                     0.101326
      5 C                     0.301476
      6 C                     0.084613
      7 O                    -0.430678
      8 O                    -0.436635
      9 O                    -0.316714
     10 C                    -0.166181
     11 O                    -0.318950
     12 C                    -0.168675
     13 C                    -0.374828
     14 C                    -0.255621
     15 C                    -0.207033
     16 C                     0.095877
     17 C                    -0.337829
     18 C                    -0.385045
     19 H                     0.124364
     20 H                     0.155367
     21 H                     0.148540
     22 H                     0.150833
     23 H                     0.141718
     24 H                     0.152519
     25 H                     0.147574
     26 H                     0.158497
     27 H                     0.142012
     28 H                     0.120811
     29 H                     0.136536
     30 H                     0.100474
     31 H                     0.129295
     32 H                     0.124812
     33 H                     0.124346
     34 H                     0.127335
     35 H                     0.121070
     36 H                     0.128911
  ----------------------------------------
  Sum of atomic charges =     0.000000

                    Cartesian Multipole Moments
 -----------------------------------------------------------------
    Charge (ESU x 10^10)
                -0.0000
    Dipole Moment (Debye)
         X       0.7781      Y       0.1189      Z      -0.3483
       Tot       0.8608
    Quadrupole Moments (Debye-Ang)
        XX    -104.3639     XY      -2.1835     YY    -103.8520
        XZ      -0.0164     YZ      -1.0994     ZZ    -105.9811

 Total job time:  1905.01s(wall), 26989.03s(cpu)
        *  Thank you very much for using Q-Chem.  Have a nice day.  *
