 Q-Chem 6.2 (devel), Q-Chem, Inc., Pleasanton, CA (2024)
 Q-Chem 6.2.1 for Intel X86 EM64T Linux

User input:
--------------------------------------------------------------
$molecule
0 1
C
C  1 1.387294
H  2 1.086253 1 115.342803
C  2 1.395594 1 128.665811 3 180.000000 0
H  4 1.083227 2 115.593663 1 -180.000000 0
C  4 1.395186 2 128.913473 1 0.000000 0
H  6 1.084252 4 115.155321 2 180.000000 0
C  6 1.395186 4 129.689357 2 0.000000 0
H  8 1.083227 6 115.492864 4 180.000000 0
C  8 1.395594 6 128.913473 4 -0.000000 0
H  10 1.086253 8 115.991386 6 180.000000 0
C  10 1.387294 8 128.665811 6 -0.000000 0
C  12 1.402460 10 125.812350 8 -180.000000 0
H  13 1.079381 12 125.078903 10 -0.000000 0
C  1 1.402460 2 125.812350 3 -0.000000 0
H  15 1.079381 1 125.078903 2 -0.000000 0
C  13 1.403445 12 108.382443 10 -180.000000 0
H  17 1.080835 13 124.994055 12 180.000000 0
$end
$rem
   METHOD                CC2
   PRINT_ORBITALS        TRUE
   MEM_TOTAL		 490000
   MEM_STATIC            2000
   CCMAN2                true    new Dyson code
   PURECART              1111
   BASIS                 aug-cc-pvtz
   AUX_BASIS             rimp2-cc-pvtz
   EA_STATES             [0,0,0,1]
   CC_CONVERGENCE        10
   SCF_CONVERGENCE       10
   EOM_DAVIDSON_CONVERGENCE 10
   CC_TRANS_PROP         true    necessary for Dyson orbitals job
   CC_DO_DYSON           true
   PRINT_GENERAL_BASIS   true       will be required for ezDyson
$end
--------------------------------------------------------------

             Standard Nuclear Orientation (Angstroms)
    I     Atom           X                Y                Z
 ----------------------------------------------------------------
    1      C      -0.7487798402     0.0000000000     0.5511274366
    2      C      -1.5947707452     0.0000000000    -0.5483651878
    3      H      -2.6563583743     0.0000000000    -0.3181972367
    4      C      -1.2628648085     0.0000000000    -1.9039171278
    5      H      -2.1004885786     0.0000000000    -2.5907702075
    6      C       0.0000000000     0.0000000000    -2.4969737813
    7      H       0.0000000000     0.0000000000    -3.5812257813
    8      C       1.2628648085    -0.0000000000    -1.9039171278
    9      H       2.1004885786    -0.0000000000    -2.5907702075
   10      C       1.5947707452    -0.0000000000    -0.5483651878
   11      H       2.6563583743    -0.0000000000    -0.3181972367
   12      C       0.7487798402    -0.0000000000     0.5511274366
   13      C       1.1497185402    -0.0000000000     1.8950553835
   14      H       2.1735164154    -0.0000000000     2.2369636373
   15      C      -1.1497185402     0.0000000000     1.8950553835
   16      H      -2.1735164154     0.0000000000     2.2369636373
   17      C       0.0000000000     0.0000000000     2.6999190230
   18      H       0.0000000000     0.0000000000     3.7807540230
 ----------------------------------------------------------------

   18    -383.4088548956      9.38e-11  Convergence criterion met
 Total energy =  -383.40885490
        Solving for EOMEA-CC2/MP2 B2 transitions.
 EOMEA transition 1/B2
 Total energy = -385.06969090 a.u.  Excitation energy = -0.9804 eV.
 EOM-EA-CC2 state  1/B2 -- Reference  transition

             Orbital Energies (a.u.) and Symmetries
 --------------------------------------------------------------

 Alpha MOs, Restricted
 -- Occupied --
-11.265 -11.265 -11.262 -11.245 -11.245 -11.244 -11.243 -11.231
  1 B1    1 A1    2 A1    2 B1    3 A1    4 A1    3 B1    5 A1
-11.215 -11.215  -1.177  -1.114  -1.071  -1.004  -0.962  -0.884
  4 B1    6 A1    7 A1    8 A1    5 B1    9 A1    6 B1   10 A1
 -0.849  -0.753  -0.747  -0.710  -0.681  -0.631  -0.627  -0.575
  7 B1   11 A1   12 A1    8 B1   13 A1   14 A1    9 B1   10 B1
 -0.557  -0.532  -0.532  -0.530  -0.513  -0.480  -0.451  -0.407
 15 A1   11 B1   16 A1    1 B2   12 B1   17 A1    2 B2    1 A2
 -0.301  -0.261
  3 B2    2 A2

 Beta MOs, Restricted
 -- Occupied --
-11.265 -11.265 -11.262 -11.245 -11.245 -11.244 -11.243 -11.231
  1 B1    1 A1    2 A1    2 B1    3 A1    4 A1    3 B1    5 A1
-11.215 -11.215  -1.177  -1.114  -1.071  -1.004  -0.962  -0.884
  4 B1    6 A1    7 A1    8 A1    5 B1    9 A1    6 B1   10 A1
 -0.849  -0.753  -0.747  -0.710  -0.681  -0.631  -0.627  -0.575
  7 B1   11 A1   12 A1    8 B1   13 A1   14 A1    9 B1   10 B1
 -0.557  -0.532  -0.532  -0.530  -0.513  -0.480  -0.451  -0.407
 15 A1   11 B1   16 A1    1 B2   12 B1   17 A1    2 B2    1 A2
 -0.301  -0.261
  3 B2    2 A2

          Ground-State Mulliken Net Atomic Charges

     Atom                 Charge (a.u.)
  ----------------------------------------
      1 C                     1.448384
      2 C                    -0.756949
      3 H                     0.148604
      4 C                    -0.227344
      5 H                     0.196587
      6 C                    -0.178753
      7 H                     0.284699
      8 C                    -0.227344
      9 H                     0.196587
     10 C                    -0.756949
     11 H                     0.148604
     12 C                     1.448384
     13 C                    -1.370773
     14 H                     0.520505
     15 C                    -1.370773
     16 H                     0.520505
     17 C                    -0.529496
     18 H                     0.505522
  ----------------------------------------
  Sum of atomic charges =     0.000000

                    Cartesian Multipole Moments
 -----------------------------------------------------------------
    Charge (ESU x 10^10)
                 0.0000
    Dipole Moment (Debye)
         X      -0.0000      Y       0.0000      Z      -1.4154
       Tot       1.4154
    Quadrupole Moments (Debye-Ang)
        XX     -51.3266     XY       0.0000     YY     -66.1440
        XZ      -0.0000     YZ      -0.0000     ZZ     -52.7913

 Total job time:  5451.53s(wall), 77206.43s(cpu)
        *  Thank you very much for using Q-Chem.  Have a nice day.  *
