 Q-Chem 6.2 (devel), Q-Chem, Inc., Pleasanton, CA (2024)
 Q-Chem 6.2.1 for Intel X86 EM64T Linux

User input:
--------------------------------------------------------------
$molecule
0 1
H     2.0000     0.0000    0.0000
F     2.9200     0.0000    0.0000
H    -1.0000     1.7321    0.0000
F    -1.4600     2.5261    0.0000
H    -1.0000    -1.7321    0.0000
F    -1.4600    -2.5261    0.0000
$end

$rem
   CCMAN2                       1
   MEM_TOTAL                    80000
   CC_MEMORY                    75000
   MEM_STATIC                   2000
   SYM_IGNORE			TRUE
   CC_BACKEND                   XM
   METHOD                       cc2
   BASIS                        gen
   PURECART                     11
   AUX_BASIS                    rimp2-aug-cc-pVDZ
   N_FROZEN_CORE                fc
   EA_STATES                    [2]
   SCF_CONVERGENCE              10
   MAX_SCF_CYCLES               200
   CC_CONVERGENCE               8
   EOM_DAVIDSON_CONVERGENCE     8
   !CC_TRANS_PROP               TRUE
   CC_DO_DYSON                  TRUE
   CC_EOM_PROP                  TRUE
   PRINT_ORBITALS               TRUE
$end

$basis
H     0
S   4   1.00
      1.301000D+01           1.968500D-02
      1.962000D+00           1.379770D-01
      4.446000D-01           4.781480D-01
      1.220000D-01           5.012400D-01
S   1   1.00
      1.220000D-01           1.000000D+00
S   1   1.00
      0.0297400              1.0000000
S   1   1.00
      0.01487              1.0000000
S   1   1.00
      0.007435              1.0000000
S   1   1.00
      0.0037175              1.0000000
P   1   1.00
      7.270000D-01           1.0000000
P   1   1.00
      0.1410000              1.0000000
****
F     0
S   9   1.00
      1.471000D+04           7.210000D-04
      2.207000D+03           5.553000D-03
      5.028000D+02           2.826700D-02
      1.426000D+02           1.064440D-01
      4.647000D+01           2.868140D-01
      1.670000D+01           4.486410D-01
      6.356000D+00           2.647610D-01
      1.316000D+00           1.533300D-02
      3.897000D-01          -2.332000D-03
S   9   1.00
      1.471000D+04          -1.650000D-04
      2.207000D+03          -1.308000D-03
      5.028000D+02          -6.495000D-03
      1.426000D+02          -2.669100D-02
      4.647000D+01          -7.369000D-02
      1.670000D+01          -1.707760D-01
      6.356000D+00          -1.123270D-01
      1.316000D+00           5.628140D-01
      3.897000D-01           5.687780D-01
S   1   1.00
      3.897000D-01           1.000000D+00
S   1   1.00
      0.0986300              1.0000000
S   1   1.00
      0.4931500              1.0000000
S   1   1.00
      0.2465750              1.0000000
S   1   1.00
      0.1232875              1.0000000
S   1   1.00
      0.0616438              1.0000000
S   1   1.00
      0.0308219              1.0000000
S   1   1.00
      0.0154109              1.0000000
P   4   1.00
      2.267000D+01           4.487800D-02
      4.977000D+00           2.357180D-01
      1.347000D+00           5.085210D-01
      3.471000D-01           4.581200D-01
P   1   1.00
      3.471000D-01           1.000000D+00
P   1   1.00
      0.0850200              1.0000000
P   1   1.00
      0.042510               1.0000000
P   1   1.00
      0.021255               1.0000000
P   1   1.00
      0.0106275              1.0000000
D   1   1.00
      1.640000D+00           1.0000000
D   1   1.00
      0.4640000              1.0000000
****
$end
--------------------------------------------------------------

             Standard Nuclear Orientation (Angstroms)
    I     Atom           X                Y                Z
 ----------------------------------------------------------------
    1      H       2.0000000000     0.0000000000     0.0000000000
    2      F       2.9200000000     0.0000000000     0.0000000000
    3      H      -1.0000000000     1.7321000000     0.0000000000
    4      F      -1.4600000000     2.5261000000     0.0000000000
    5      H      -1.0000000000    -1.7321000000     0.0000000000
    6      F      -1.4600000000    -2.5261000000     0.0000000000
 ----------------------------------------------------------------

   13    -300.0965127160      3.64e-11  Convergence criterion met
 Total energy =  -300.09651272
        Solving for EOMEA-CC2/MP2 A transitions.
 EOMEA transition 1/A
 Total energy = -300.79147235 a.u.  Excitation energy = -0.4433 eV.
 EOMEA transition 2/A
 Total energy = -300.76967582 a.u.  Excitation energy = 0.1498 eV.
 Excited state properties for  EOMEA-CC2 transition 1/A
 Excited state properties for  EOMEA-CC2 transition 2/A
 EOM-EA-CC2 state  1/A -- Reference  transition
 EOM-EA-CC2 state  2/A -- Reference  transition

                    Orbital Energies (a.u.)
 --------------------------------------------------------------

 Alpha MOs
 -- Occupied --
-26.3305 -26.3304 -26.3304  -1.6264  -1.6263  -1.6255  -0.7895  -0.7887
 -0.7879  -0.6688  -0.6687  -0.6687  -0.6686  -0.6684  -0.6684

          Ground-State Mulliken Net Atomic Charges

     Atom                 Charge (a.u.)
  ----------------------------------------
      1 H                     0.162545
      2 F                    -0.162530
      3 H                     0.157326
      4 F                    -0.157333
      5 H                     0.157326
      6 F                    -0.157333
  ----------------------------------------
  Sum of atomic charges =     0.000000

                    Cartesian Multipole Moments
 -----------------------------------------------------------------
    Charge (ESU x 10^10)
                 0.0000
    Dipole Moment (Debye)
         X       0.0005      Y       0.0000      Z      -0.0000
       Tot       0.0005
    Quadrupole Moments (Debye-Ang)
        XX     -29.8082     XY      -0.0000     YY     -29.7608
        XZ      -0.0000     YZ      -0.0000     ZZ     -17.1456

 Total job time:  169.67s(wall), 414.96s(cpu)
        *  Thank you very much for using Q-Chem.  Have a nice day.  *
