 Q-Chem 6.2 (devel), Q-Chem, Inc., Pleasanton, CA (2024)
 Q-Chem 6.2.1 for Intel X86 EM64T Linux

User input:
--------------------------------------------------------------
$molecule
0 1
C 0.000000 0.000000 0.000000
C -0.741227 -1.289614 0.043285
C 0.005931 -2.584011 0.000000
C 1.349304 -2.559535 0.032503
C 2.113673 -1.304727 0.000000
C 1.370411 -0.000000 -0.088247
O -1.969000 -1.296898 0.113529
C -0.815523 -3.834030 -0.024541
O 3.341419 -1.314732 0.037008
O 2.228219 0.970768 -0.475026
C 1.803841 2.280598 -0.895037
O -0.837310 1.055120 0.263525
C -0.416599 2.001211 1.263495
H -1.449624 -3.853947 -0.918070
H -0.176134 -4.719926 -0.014820
H -1.495681 -3.862357 0.833225
H 0.498838 2.528259 1.002316
H -1.239883 2.711753 1.346099
H -0.275998 1.480440 2.218861
H 0.741917 2.302923 -1.147464
H 2.045375 3.007992 -0.116112
H 2.399843 2.502300 -1.783540
H 1.951717 -3.463962 0.062184
$end
!dih1 -040 dih2 0000
$end

$rem
   CCMAN2                       1
   MEM_TOTAL                    120000
   CC_MEMORY			115000
   MEM_STATIC                   2000
   METHOD                       cc2
   BASIS                        gen
   PURECART                     11
   AUX_BASIS                    rimp2-aug-cc-pVDZ
   N_FROZEN_CORE                fc
   EA_STATES                    [2]
   SCF_CONVERGENCE              10
   MAX_SCF_CYCLES               200
   CC_CONVERGENCE               8
   EOM_DAVIDSON_CONVERGENCE     8
   CC_TRANS_PROP		TRUE
   CC_DO_DYSON			TRUE
   CC_EOM_PROP			TRUE
   !PRINT_ORBITALS               TRUE
$end

$basis
H     0
S   4   1.00
      1.301000D+01           1.968500D-02
      1.962000D+00           1.379770D-01
      4.446000D-01           4.781480D-01
      1.220000D-01           5.012400D-01
S   1   1.00
      1.220000D-01           1.000000D+00
S   1   1.00
      0.0297400              1.0000000
S   1   1.00
      0.01487              1.0000000
S   1   1.00
      0.007435              1.0000000
S   1   1.00
      0.0037175              1.0000000
P   1   1.00
      7.270000D-01           1.0000000
P   1   1.00
      0.1410000              1.0000000
****
C     0
S   9   1.00
      6.665000D+03           6.920000D-04
      1.000000D+03           5.329000D-03
      2.280000D+02           2.707700D-02
      6.471000D+01           1.017180D-01
      2.106000D+01           2.747400D-01
      7.495000D+00           4.485640D-01
      2.797000D+00           2.850740D-01
      5.215000D-01           1.520400D-02
      1.596000D-01          -3.191000D-03
S   9   1.00
      6.665000D+03          -1.460000D-04
      1.000000D+03          -1.154000D-03
      2.280000D+02          -5.725000D-03
      6.471000D+01          -2.331200D-02
      2.106000D+01          -6.395500D-02
      7.495000D+00          -1.499810D-01
      2.797000D+00          -1.272620D-01
      5.215000D-01           5.445290D-01
      1.596000D-01           5.804960D-01
S   1   1.00
      1.596000D-01           1.000000D+00
S   1   1.00
      0.0469000              1.0000000
S   1   1.00
      0.02345              1.0000000
S   1   1.00
      0.011725              1.0000000
S   1   1.00
      0.0058625              1.0000000
S   1   1.00
      0.00293125              1.0000000
S   1   1.00
      0.00146562              1.0000000
S   1   1.00
      0.00073281              1.0000000
P   4   1.00
      9.439000D+00           3.810900D-02
      2.002000D+00           2.094800D-01
      5.456000D-01           5.085570D-01
      1.517000D-01           4.688420D-01
P   1   1.00
      1.517000D-01           1.000000D+00
P   1   1.00
      0.0404100              1.0000000
P   1   1.00
      0.020205              1.0000000
P   1   1.00
      0.0101025              1.0000000
P   1   1.00
      0.00505125              1.0000000
D   1   1.00
      5.500000D-01           1.0000000
D   1   1.00
      0.1510000              1.0000000
****
N     0
S   9   1.00
      9.046000D+03           7.000000D-04
      1.357000D+03           5.389000D-03
      3.093000D+02           2.740600D-02
      8.773000D+01           1.032070D-01
      2.856000D+01           2.787230D-01
      1.021000D+01           4.485400D-01
      3.838000D+00           2.782380D-01
      7.466000D-01           1.544000D-02
      2.248000D-01          -2.864000D-03
S   9   1.00
      9.046000D+03          -1.530000D-04
      1.357000D+03          -1.208000D-03
      3.093000D+02          -5.992000D-03
      8.773000D+01          -2.454400D-02
      2.856000D+01          -6.745900D-02
      1.021000D+01          -1.580780D-01
      3.838000D+00          -1.218310D-01
      7.466000D-01           5.490030D-01
      2.248000D-01           5.788150D-01
S   1   1.00
      2.248000D-01           1.000000D+00
S   1   1.00
      0.0612400              1.0000000
S   1   1.00
      0.03062              1.0000000
S   1   1.00
      0.01531              1.0000000
S   1   1.00
      0.007655              1.0000000
S   1   1.00
      0.0038275              1.0000000
S   1   1.00
      0.00191375              1.0000000
S   1   1.00
      0.000956875              1.0000000
P   4   1.00
      1.355000D+01           3.991900D-02
      2.917000D+00           2.171690D-01
      7.973000D-01           5.103190D-01
      2.185000D-01           4.622140D-01
P   1   1.00
      2.185000D-01           1.000000D+00
P   1   1.00
      0.0561100              1.0000000
P   1   1.00
      0.028055              1.0000000
P   1   1.00
      0.0140275              1.0000000
P   1   1.00
      0.00701375              1.0000000
D   1   1.00
      8.170000D-01           1.0000000
D   1   1.00
      0.2300000              1.0000000
****
O     0
S   9   1.00
      1.172000D+04           7.100000D-04
      1.759000D+03           5.470000D-03
      4.008000D+02           2.783700D-02
      1.137000D+02           1.048000D-01
      3.703000D+01           2.830620D-01
      1.327000D+01           4.487190D-01
      5.025000D+00           2.709520D-01
      1.013000D+00           1.545800D-02
      3.023000D-01          -2.585000D-03
S   9   1.00
      1.172000D+04          -1.600000D-04
      1.759000D+03          -1.263000D-03
      4.008000D+02          -6.267000D-03
      1.137000D+02          -2.571600D-02
      3.703000D+01          -7.092400D-02
      1.327000D+01          -1.654110D-01
      5.025000D+00          -1.169550D-01
      1.013000D+00           5.573680D-01
      3.023000D-01           5.727590D-01
S   1   1.00
      3.023000D-01           1.000000D+00
S   1   1.00
      0.0789600              1.0000000
S   1   1.00
      0.03948              1.0000000
S   1   1.00
      0.01974              1.0000000
S   1   1.00
      0.00987              1.0000000
S   1   1.00
      0.004935              1.0000000
S   1   1.00
      0.0024675              1.0000000
S   1   1.00
      0.00123375              1.0000000
P   4   1.00
      1.770000D+01           4.301800D-02
      3.854000D+00           2.289130D-01
      1.046000D+00           5.087280D-01
      2.753000D-01           4.605310D-01
P   1   1.00
      2.753000D-01           1.000000D+00
P   1   1.00
      0.0685600              1.0000000
P   1   1.00
      0.03428              1.0000000
P   1   1.00
      0.01714              1.0000000
P   1   1.00
      0.00857              1.0000000
D   1   1.00
      1.185000D+00           1.0000000
D   1   1.00
      0.3320000              1.0000000
****
S     0
S   12   1.00
      1.108000D+05           2.476350D-04
      1.661000D+04           1.920260D-03
      3.781000D+03           9.961920D-03
      1.071000D+03           4.029750D-02
      3.498000D+02           1.286040D-01
      1.263000D+02           3.034800D-01
      4.926000D+01           4.214320D-01
      2.016000D+01           2.307810D-01
      5.720000D+00           1.789710D-02
      2.182000D+00          -2.975160D-03
      4.327000D-01           8.495220D-04
      1.570000D-01          -3.679360D-04
S   12   1.00
      1.108000D+05          -6.870390D-05
      1.661000D+04          -5.276810D-04
      3.781000D+03          -2.796710D-03
      1.071000D+03          -1.126510D-02
      3.498000D+02          -3.888340D-02
      1.263000D+02          -9.950250D-02
      4.926000D+01          -1.997400D-01
      2.016000D+01          -1.233600D-01
      5.720000D+00           5.131940D-01
      2.182000D+00           6.071200D-01
      4.327000D-01           3.967530D-02
      1.570000D-01          -9.468640D-03
S   12   1.00
      1.108000D+05           1.990770D-05
      1.661000D+04           1.534830D-04
      3.781000D+03           8.095030D-04
      1.071000D+03           3.289740D-03
      3.498000D+02           1.129670D-02
      1.263000D+02           2.963850D-02
      4.926000D+01           5.998510D-02
      2.016000D+01           4.132480D-02
      5.720000D+00          -2.074740D-01
      2.182000D+00          -3.928890D-01
      4.327000D-01           6.328400D-01
      1.570000D-01           5.569240D-01
S   1   1.00
      1.570000D-01           1.000000D+00
S   1   1.00
      0.0507000              1.0000000
S   1   1.00
      0.02535              1.0000000
S   1   1.00
      0.012675              1.0000000
S   1   1.00
      0.0063375              1.0000000
S   1   1.00
      0.00316875              1.0000000
S   1   1.00
      0.00158438              1.0000000
S   1   1.00
      0.00079219              1.0000000

             Standard Nuclear Orientation (Angstroms)
    I     Atom           X                Y                Z
 ----------------------------------------------------------------
    1      C       0.3190998989    -0.6748378148     0.1378680390
    2      C      -1.1386861871    -0.9713631542     0.1743067024
    3      C      -2.1316456708     0.1398873037     0.0529141754
    4      C      -1.6870722096     1.3832112435    -0.1976981847
    5      C      -0.2552757729     1.7104978827    -0.2496784659
    6      C       0.7514399148     0.6213848268     0.0011097992
    7      O      -1.5327572165    -2.1289319718     0.3052886555
    8      C      -3.5756467734    -0.2328629531     0.1706193019
    9      O       0.1201528617     2.8557378500    -0.4869729880
   10      O       1.9503405649     1.1835297230     0.2739713321
   11      C       3.0689559143     0.4458535507     0.7999885570
   12      O       1.0520620211    -1.8318544533     0.0490384165
   13      C       2.0614708561    -1.8998522621    -0.9749225343
   14      H      -3.7752224746    -0.6720464383     1.1545716609
   15      H      -4.2158328262     0.6409213646     0.0278352065
   16      H      -3.8339902135    -1.0017937807    -0.5650327109
   17      H       2.8547149525    -1.1656097374    -0.8497399325
   18      H       2.4755354670    -2.9059599950    -0.8988460790
   19      H       1.5915399514    -1.7631027983    -1.9568389251
   20      H       2.7617803710    -0.5125768963     1.2230188652
   21      H       3.8190849112     0.3152850238     0.0161370355
   22      H       3.4850409114     1.0806020722     1.5859754090
   23      H      -2.3568767221     2.2249202624    -0.3547281982
 ----------------------------------------------------------------

   21    -646.0841297348      9.10e-11  Convergence criterion met
 Total energy =  -646.08412973
        Solving for EOMEA-CC2/MP2 A transitions.
 EOMEA transition 1/A
 Total energy = -648.19414143 a.u.  Excitation energy = -1.4421 eV.
 EOMEA transition 2/A
 Total energy = -648.14116454 a.u.  Excitation energy = -0.0005 eV.
 Excited state properties for  EOMEA-CC2 transition 1/A
 Excited state properties for  EOMEA-CC2 transition 2/A
 EOM-EA-CC2 state  1/A -- Reference  transition
 EOM-EA-CC2 state  2/A -- Reference  transition

                    Orbital Energies (a.u.)
 --------------------------------------------------------------

 Alpha MOs
 -- Occupied --
-20.6197 -20.6062 -20.5769 -20.5753 -11.3616 -11.3596 -11.3491 -11.3301
-11.3106 -11.3039 -11.2889 -11.2697 -11.2471  -1.4439  -1.4223  -1.3944
 -1.3891  -1.1512  -1.0779  -0.9979  -0.9895  -0.9527  -0.9097  -0.8312
 -0.8114  -0.7436  -0.7254  -0.7052  -0.6746  -0.6656  -0.6545  -0.6471
 -0.6315  -0.6163  -0.6025  -0.5895  -0.5714  -0.5670  -0.5540  -0.5430
 -0.5345  -0.5186  -0.5094  -0.4857  -0.4493  -0.4385  -0.3927  -0.3437

          Ground-State Mulliken Net Atomic Charges

     Atom                 Charge (a.u.)
  ----------------------------------------
      1 C                     1.252404
      2 C                    -0.304652
      3 C                     0.467478
      4 C                     2.227485
      5 C                    -0.693803
      6 C                     1.886799
      7 O                    -1.160040
      8 C                     0.631199
      9 O                    -0.989887
     10 O                    -1.610989
     11 C                     0.989929
     12 O                    -1.258451
     13 C                     1.472120
     14 H                    -0.033248
     15 H                    -0.153977
     16 H                    -0.046915
     17 H                    -0.574878
     18 H                    -0.215873
     19 H                    -0.165204
     20 H                    -0.339048
     21 H                     0.109741
     22 H                    -0.528487
     23 H                    -0.961703
  ----------------------------------------
  Sum of atomic charges =     0.000000

                    Cartesian Multipole Moments
 -----------------------------------------------------------------
    Charge (ESU x 10^10)
                 0.0000
    Dipole Moment (Debye)
         X       1.3928      Y      -0.7820      Z      -0.1987
       Tot       1.6096
    Quadrupole Moments (Debye-Ang)
        XX     -59.0098     XY     -10.1982     YY     -95.9648
        XZ       0.8635     YZ       5.7355     ZZ     -74.3022

 Total job time:  1526.07s(wall), 38983.91s(cpu)
        *  Thank you very much for using Q-Chem.  Have a nice day.  *
