 Q-Chem 6.2 (devel), Q-Chem, Inc., Pleasanton, CA (2024)
 Q-Chem 6.2.1 for Intel X86 EM64T Linux

User input:
--------------------------------------------------------------
$molecule
0 1
C 0.000000 0.000000 0.000000
C -0.734909 -1.314803 0.049297
C 0.003494 -2.606898 -0.000000
C 1.344387 -2.581111 -0.018328
C 2.100993 -1.322853 0.000000
C 1.376224 0.000000 -0.035134
O -1.960141 -1.326610 0.121835
C -0.822360 -3.854829 -0.006046
O 3.328799 -1.350870 0.036502
O 2.324783 0.959788 -0.150255
C 2.209206 2.354231 0.102901
O -0.948339 0.970080 -0.021446
C -0.796245 2.347933 0.293900
H -1.492121 -3.865728 -0.872841
H -0.184227 -4.741451 -0.029278
H -1.466460 -3.890694 0.879043
H -0.303941 2.897410 -0.514293
H -1.817711 2.715193 0.406865
H -0.253042 2.485795 1.234659
H 1.772411 2.547097 1.087929
H 3.237566 2.718276 0.082921
H 1.631616 2.861032 -0.676803
H 1.951174 -3.482619 -0.034620
$end
!dih1 -020 dih2 0020
$end

$rem
   CCMAN2                       1
   MEM_TOTAL                    120000
   CC_MEMORY			115000
   MEM_STATIC                   2000
   METHOD                       cc2
   BASIS                        gen
   PURECART                     11
   AUX_BASIS                    rimp2-aug-cc-pVDZ
   N_FROZEN_CORE                fc
   EA_STATES                    [2]
   SCF_CONVERGENCE              10
   MAX_SCF_CYCLES               200
   CC_CONVERGENCE               8
   EOM_DAVIDSON_CONVERGENCE     8
   CC_TRANS_PROP		TRUE
   CC_DO_DYSON			TRUE
   CC_EOM_PROP			TRUE
   !PRINT_ORBITALS               TRUE
$end

$basis
H     0
S   4   1.00
      1.301000D+01           1.968500D-02
      1.962000D+00           1.379770D-01
      4.446000D-01           4.781480D-01
      1.220000D-01           5.012400D-01
S   1   1.00
      1.220000D-01           1.000000D+00
S   1   1.00
      0.0297400              1.0000000
S   1   1.00
      0.01487              1.0000000
S   1   1.00
      0.007435              1.0000000
S   1   1.00
      0.0037175              1.0000000
P   1   1.00
      7.270000D-01           1.0000000
P   1   1.00
      0.1410000              1.0000000
****
C     0
S   9   1.00
      6.665000D+03           6.920000D-04
      1.000000D+03           5.329000D-03
      2.280000D+02           2.707700D-02
      6.471000D+01           1.017180D-01
      2.106000D+01           2.747400D-01
      7.495000D+00           4.485640D-01
      2.797000D+00           2.850740D-01
      5.215000D-01           1.520400D-02
      1.596000D-01          -3.191000D-03
S   9   1.00
      6.665000D+03          -1.460000D-04
      1.000000D+03          -1.154000D-03
      2.280000D+02          -5.725000D-03
      6.471000D+01          -2.331200D-02
      2.106000D+01          -6.395500D-02
      7.495000D+00          -1.499810D-01
      2.797000D+00          -1.272620D-01
      5.215000D-01           5.445290D-01
      1.596000D-01           5.804960D-01
S   1   1.00
      1.596000D-01           1.000000D+00
S   1   1.00
      0.0469000              1.0000000
S   1   1.00
      0.02345              1.0000000
S   1   1.00
      0.011725              1.0000000
S   1   1.00
      0.0058625              1.0000000
S   1   1.00
      0.00293125              1.0000000
S   1   1.00
      0.00146562              1.0000000
S   1   1.00
      0.00073281              1.0000000
P   4   1.00
      9.439000D+00           3.810900D-02
      2.002000D+00           2.094800D-01
      5.456000D-01           5.085570D-01
      1.517000D-01           4.688420D-01
P   1   1.00
      1.517000D-01           1.000000D+00
P   1   1.00
      0.0404100              1.0000000
P   1   1.00
      0.020205              1.0000000
P   1   1.00
      0.0101025              1.0000000
P   1   1.00
      0.00505125              1.0000000
D   1   1.00
      5.500000D-01           1.0000000
D   1   1.00
      0.1510000              1.0000000
****
N     0
S   9   1.00
      9.046000D+03           7.000000D-04
      1.357000D+03           5.389000D-03
      3.093000D+02           2.740600D-02
      8.773000D+01           1.032070D-01
      2.856000D+01           2.787230D-01
      1.021000D+01           4.485400D-01
      3.838000D+00           2.782380D-01
      7.466000D-01           1.544000D-02
      2.248000D-01          -2.864000D-03
S   9   1.00
      9.046000D+03          -1.530000D-04
      1.357000D+03          -1.208000D-03
      3.093000D+02          -5.992000D-03
      8.773000D+01          -2.454400D-02
      2.856000D+01          -6.745900D-02
      1.021000D+01          -1.580780D-01
      3.838000D+00          -1.218310D-01
      7.466000D-01           5.490030D-01
      2.248000D-01           5.788150D-01
S   1   1.00
      2.248000D-01           1.000000D+00
S   1   1.00
      0.0612400              1.0000000
S   1   1.00
      0.03062              1.0000000
S   1   1.00
      0.01531              1.0000000
S   1   1.00
      0.007655              1.0000000
S   1   1.00
      0.0038275              1.0000000
S   1   1.00
      0.00191375              1.0000000
S   1   1.00
      0.000956875              1.0000000
P   4   1.00
      1.355000D+01           3.991900D-02
      2.917000D+00           2.171690D-01
      7.973000D-01           5.103190D-01
      2.185000D-01           4.622140D-01
P   1   1.00
      2.185000D-01           1.000000D+00
P   1   1.00
      0.0561100              1.0000000
P   1   1.00
      0.028055              1.0000000
P   1   1.00
      0.0140275              1.0000000
P   1   1.00
      0.00701375              1.0000000
D   1   1.00
      8.170000D-01           1.0000000
D   1   1.00
      0.2300000              1.0000000
****
O     0
S   9   1.00
      1.172000D+04           7.100000D-04
      1.759000D+03           5.470000D-03
      4.008000D+02           2.783700D-02
      1.137000D+02           1.048000D-01
      3.703000D+01           2.830620D-01
      1.327000D+01           4.487190D-01
      5.025000D+00           2.709520D-01
      1.013000D+00           1.545800D-02
      3.023000D-01          -2.585000D-03
S   9   1.00
      1.172000D+04          -1.600000D-04
      1.759000D+03          -1.263000D-03
      4.008000D+02          -6.267000D-03
      1.137000D+02          -2.571600D-02
      3.703000D+01          -7.092400D-02
      1.327000D+01          -1.654110D-01
      5.025000D+00          -1.169550D-01
      1.013000D+00           5.573680D-01
      3.023000D-01           5.727590D-01
S   1   1.00
      3.023000D-01           1.000000D+00
S   1   1.00
      0.0789600              1.0000000
S   1   1.00
      0.03948              1.0000000
S   1   1.00
      0.01974              1.0000000
S   1   1.00
      0.00987              1.0000000
S   1   1.00
      0.004935              1.0000000
S   1   1.00
      0.0024675              1.0000000
S   1   1.00
      0.00123375              1.0000000
P   4   1.00
      1.770000D+01           4.301800D-02
      3.854000D+00           2.289130D-01
      1.046000D+00           5.087280D-01
      2.753000D-01           4.605310D-01
P   1   1.00
      2.753000D-01           1.000000D+00
P   1   1.00
      0.0685600              1.0000000
P   1   1.00
      0.03428              1.0000000
P   1   1.00
      0.01714              1.0000000
P   1   1.00
      0.00857              1.0000000
D   1   1.00
      1.185000D+00           1.0000000
D   1   1.00
      0.3320000              1.0000000
****
S     0
S   12   1.00
      1.108000D+05           2.476350D-04
      1.661000D+04           1.920260D-03
      3.781000D+03           9.961920D-03
      1.071000D+03           4.029750D-02
      3.498000D+02           1.286040D-01
      1.263000D+02           3.034800D-01
      4.926000D+01           4.214320D-01
      2.016000D+01           2.307810D-01
      5.720000D+00           1.789710D-02
      2.182000D+00          -2.975160D-03
      4.327000D-01           8.495220D-04
      1.570000D-01          -3.679360D-04
S   12   1.00
      1.108000D+05          -6.870390D-05
      1.661000D+04          -5.276810D-04
      3.781000D+03          -2.796710D-03
      1.071000D+03          -1.126510D-02
      3.498000D+02          -3.888340D-02
      1.263000D+02          -9.950250D-02
      4.926000D+01          -1.997400D-01
      2.016000D+01          -1.233600D-01
      5.720000D+00           5.131940D-01
      2.182000D+00           6.071200D-01
      4.327000D-01           3.967530D-02
      1.570000D-01          -9.468640D-03
S   12   1.00
      1.108000D+05           1.990770D-05
      1.661000D+04           1.534830D-04
      3.781000D+03           8.095030D-04
      1.071000D+03           3.289740D-03
      3.498000D+02           1.129670D-02
      1.263000D+02           2.963850D-02
      4.926000D+01           5.998510D-02
      2.016000D+01           4.132480D-02
      5.720000D+00          -2.074740D-01
      2.182000D+00          -3.928890D-01
      4.327000D-01           6.328400D-01
      1.570000D-01           5.569240D-01
S   1   1.00
      1.570000D-01           1.000000D+00
S   1   1.00
      0.0507000              1.0000000
S   1   1.00
      0.02535              1.0000000
S   1   1.00
      0.012675              1.0000000
S   1   1.00
      0.0063375              1.0000000
S   1   1.00
      0.00316875              1.0000000
S   1   1.00
      0.00158438              1.0000000
S   1   1.00
      0.00079219              1.0000000

             Standard Nuclear Orientation (Angstroms)
    I     Atom           X                Y                Z
 ----------------------------------------------------------------
    1      C       0.3026568323    -0.6763112146     0.0682277284
    2      C      -1.1727833398    -0.9771513516     0.0065846279
    3      C      -2.1784296387     0.1209484986     0.0010245763
    4      C      -1.7448707404     1.3900483859    -0.0191516536
    5      C      -0.3155916036     1.7263497145    -0.0271713134
    6      C       0.7221847707     0.6348704719     0.0631493428
    7      O      -1.5568809850    -2.1423525653    -0.0304255174
    8      C      -3.6188213987    -0.2848481007    -0.0009405979
    9      O       0.0330751666     2.9022410686    -0.1002187532
   10      O       1.9237849332     1.2495362175     0.1751899462
   11      C       3.2201736632     0.7058199985    -0.0385066085
   12      O       0.9365125673    -1.8736413417     0.1423186861
   13      C       2.2997792009    -2.1597459126    -0.1417637567
   14      H      -3.8471636414    -0.8881167157     0.8844739692
   15      H      -4.2685967995     0.5933951636    -0.0191812016
   16      H      -3.8357605938    -0.9185597690    -0.8674742402
   17      H       2.9606192482    -1.8296812065     0.6655848971
   18      H       2.3394376107    -3.2478838330    -0.2153631107
   19      H       2.6115330301    -1.7182430323    -1.0941227662
   20      H       3.2858574288     0.1962029900    -1.0050693195
   21      H       3.8803814485     1.5744841755    -0.0391994173
   22      H       3.5142518399     0.0295105398     0.7705170817
   23      H      -2.4182795050     2.2427417158    -0.0437948572
 ----------------------------------------------------------------

   20    -646.0811360666      9.44e-11  Convergence criterion met
 Total energy =  -646.08113607
        Solving for EOMEA-CC2/MP2 A transitions.
 EOMEA transition 1/A
 Total energy = -648.18269047 a.u.  Excitation energy = -1.2879 eV.
 EOMEA transition 2/A
 Total energy = -648.13587360 a.u.  Excitation energy = -0.0140 eV.
 Excited state properties for  EOMEA-CC2 transition 1/A
 Excited state properties for  EOMEA-CC2 transition 2/A
 EOM-EA-CC2 state  1/A -- Reference  transition
 EOM-EA-CC2 state  2/A -- Reference  transition

                    Orbital Energies (a.u.)
 --------------------------------------------------------------

 Alpha MOs
 -- Occupied --
-20.6106 -20.6099 -20.5751 -20.5697 -11.3597 -11.3560 -11.3420 -11.3403
-11.3095 -11.3093 -11.2844 -11.2667 -11.2450  -1.4418  -1.4284  -1.3926
 -1.3864  -1.1485  -1.0803  -1.0043  -0.9882  -0.9542  -0.9038  -0.8256
 -0.8039  -0.7488  -0.7280  -0.7024  -0.6874  -0.6589  -0.6534  -0.6452
 -0.6336  -0.6162  -0.6051  -0.5911  -0.5717  -0.5671  -0.5512  -0.5404
 -0.5203  -0.5124  -0.5017  -0.4870  -0.4498  -0.4331  -0.3900  -0.3427

          Ground-State Mulliken Net Atomic Charges

     Atom                 Charge (a.u.)
  ----------------------------------------
      1 C                     1.427654
      2 C                    -0.804941
      3 C                     0.778645
      4 C                     2.193717
      5 C                    -1.252098
      6 C                     1.886688
      7 O                    -1.046347
      8 C                     0.643993
      9 O                    -1.059412
     10 O                    -1.394129
     11 C                     1.116631
     12 O                    -1.360448
     13 C                     1.073371
     14 H                    -0.018300
     15 H                    -0.069597
     16 H                    -0.024696
     17 H                    -0.173059
     18 H                    -0.639689
     19 H                     0.060094
     20 H                    -0.014271
     21 H                    -0.597057
     22 H                     0.067810
     23 H                    -0.794560
  ----------------------------------------
  Sum of atomic charges =     0.000000

                    Cartesian Multipole Moments
 -----------------------------------------------------------------
    Charge (ESU x 10^10)
                 0.0000
    Dipole Moment (Debye)
         X       2.0691      Y      -1.2958      Z      -0.3883
       Tot       2.4721
    Quadrupole Moments (Debye-Ang)
        XX     -56.6435     XY     -10.5381     YY     -94.6742
        XZ      -1.1736     YZ       0.7879     ZZ     -75.7747

 Total job time:  1701.97s(wall), 43540.55s(cpu)
        *  Thank you very much for using Q-Chem.  Have a nice day.  *
