 Q-Chem 6.2 (devel), Q-Chem, Inc., Pleasanton, CA (2024)
 Q-Chem 6.2.1 for Intel X86 EM64T Linux

User input:
--------------------------------------------------------------
$molecule
0 1
C 0.000000 0.000000 0.000000
C -0.735135 -1.316631 0.002593
C 0.003490 -2.609060 -0.000000
C 1.344064 -2.583373 0.001179
C 2.100491 -1.325400 -0.000000
C 1.378002 -0.000000 -0.010718
O -1.962441 -1.329506 0.005471
C -0.822197 -3.857122 -0.000163
O 3.328759 -1.356773 0.007161
O 2.341492 0.951969 -0.041891
C 2.204717 2.365211 -0.075979
O -0.958281 0.960874 0.016740
C -0.793362 2.370702 0.029082
H -1.477520 -3.882199 -0.877464
H -0.183064 -4.743340 0.001620
H -1.480619 -3.879998 0.874870
H -0.299345 2.727599 -0.880342
H -1.811925 2.760517 0.063234
H -0.247109 2.706182 0.916736
H 3.231369 2.732314 -0.115772
H 1.665819 2.698101 -0.969247
H 1.718095 2.747172 0.827302
H 1.951852 -3.484319 0.004432
$end
!dih1 0000 dih2 0000
$end

$rem
   CCMAN2                       1
   MEM_TOTAL                    120000
   CC_MEMORY			115000
   MEM_STATIC                   2000
   METHOD                       cc2
   BASIS                        gen
   PURECART                     11
   AUX_BASIS                    rimp2-aug-cc-pVDZ
   N_FROZEN_CORE                fc
   EA_STATES                    [2]
   SCF_CONVERGENCE              10
   MAX_SCF_CYCLES               200
   CC_CONVERGENCE               8
   EOM_DAVIDSON_CONVERGENCE     8
   CC_TRANS_PROP		TRUE
   CC_DO_DYSON			TRUE
   CC_EOM_PROP			TRUE
   !PRINT_ORBITALS               TRUE
$end

$basis
H     0
S   4   1.00
      1.301000D+01           1.968500D-02
      1.962000D+00           1.379770D-01
      4.446000D-01           4.781480D-01
      1.220000D-01           5.012400D-01
S   1   1.00
      1.220000D-01           1.000000D+00
S   1   1.00
      0.0297400              1.0000000
S   1   1.00
      0.01487              1.0000000
S   1   1.00
      0.007435              1.0000000
S   1   1.00
      0.0037175              1.0000000
P   1   1.00
      7.270000D-01           1.0000000
P   1   1.00
      0.1410000              1.0000000
****
C     0
S   9   1.00
      6.665000D+03           6.920000D-04
      1.000000D+03           5.329000D-03
      2.280000D+02           2.707700D-02
      6.471000D+01           1.017180D-01
      2.106000D+01           2.747400D-01
      7.495000D+00           4.485640D-01
      2.797000D+00           2.850740D-01
      5.215000D-01           1.520400D-02
      1.596000D-01          -3.191000D-03
S   9   1.00
      6.665000D+03          -1.460000D-04
      1.000000D+03          -1.154000D-03
      2.280000D+02          -5.725000D-03
      6.471000D+01          -2.331200D-02
      2.106000D+01          -6.395500D-02
      7.495000D+00          -1.499810D-01
      2.797000D+00          -1.272620D-01
      5.215000D-01           5.445290D-01
      1.596000D-01           5.804960D-01
S   1   1.00
      1.596000D-01           1.000000D+00
S   1   1.00
      0.0469000              1.0000000
S   1   1.00
      0.02345              1.0000000
S   1   1.00
      0.011725              1.0000000
S   1   1.00
      0.0058625              1.0000000
S   1   1.00
      0.00293125              1.0000000
S   1   1.00
      0.00146562              1.0000000
S   1   1.00
      0.00073281              1.0000000
P   4   1.00
      9.439000D+00           3.810900D-02
      2.002000D+00           2.094800D-01
      5.456000D-01           5.085570D-01
      1.517000D-01           4.688420D-01
P   1   1.00
      1.517000D-01           1.000000D+00
P   1   1.00
      0.0404100              1.0000000
P   1   1.00
      0.020205              1.0000000
P   1   1.00
      0.0101025              1.0000000
P   1   1.00
      0.00505125              1.0000000
D   1   1.00
      5.500000D-01           1.0000000
D   1   1.00
      0.1510000              1.0000000
****
N     0
S   9   1.00
      9.046000D+03           7.000000D-04
      1.357000D+03           5.389000D-03
      3.093000D+02           2.740600D-02
      8.773000D+01           1.032070D-01
      2.856000D+01           2.787230D-01
      1.021000D+01           4.485400D-01
      3.838000D+00           2.782380D-01
      7.466000D-01           1.544000D-02
      2.248000D-01          -2.864000D-03
S   9   1.00
      9.046000D+03          -1.530000D-04
      1.357000D+03          -1.208000D-03
      3.093000D+02          -5.992000D-03
      8.773000D+01          -2.454400D-02
      2.856000D+01          -6.745900D-02
      1.021000D+01          -1.580780D-01
      3.838000D+00          -1.218310D-01
      7.466000D-01           5.490030D-01
      2.248000D-01           5.788150D-01
S   1   1.00
      2.248000D-01           1.000000D+00
S   1   1.00
      0.0612400              1.0000000
S   1   1.00
      0.03062              1.0000000
S   1   1.00
      0.01531              1.0000000
S   1   1.00
      0.007655              1.0000000
S   1   1.00
      0.0038275              1.0000000
S   1   1.00
      0.00191375              1.0000000
S   1   1.00
      0.000956875              1.0000000
P   4   1.00
      1.355000D+01           3.991900D-02
      2.917000D+00           2.171690D-01
      7.973000D-01           5.103190D-01
      2.185000D-01           4.622140D-01
P   1   1.00
      2.185000D-01           1.000000D+00
P   1   1.00
      0.0561100              1.0000000
P   1   1.00
      0.028055              1.0000000
P   1   1.00
      0.0140275              1.0000000
P   1   1.00
      0.00701375              1.0000000
D   1   1.00
      8.170000D-01           1.0000000
D   1   1.00
      0.2300000              1.0000000
****
O     0
S   9   1.00
      1.172000D+04           7.100000D-04
      1.759000D+03           5.470000D-03
      4.008000D+02           2.783700D-02
      1.137000D+02           1.048000D-01
      3.703000D+01           2.830620D-01
      1.327000D+01           4.487190D-01
      5.025000D+00           2.709520D-01
      1.013000D+00           1.545800D-02
      3.023000D-01          -2.585000D-03
S   9   1.00
      1.172000D+04          -1.600000D-04
      1.759000D+03          -1.263000D-03
      4.008000D+02          -6.267000D-03
      1.137000D+02          -2.571600D-02
      3.703000D+01          -7.092400D-02
      1.327000D+01          -1.654110D-01
      5.025000D+00          -1.169550D-01
      1.013000D+00           5.573680D-01
      3.023000D-01           5.727590D-01
S   1   1.00
      3.023000D-01           1.000000D+00
S   1   1.00
      0.0789600              1.0000000
S   1   1.00
      0.03948              1.0000000
S   1   1.00
      0.01974              1.0000000
S   1   1.00
      0.00987              1.0000000
S   1   1.00
      0.004935              1.0000000
S   1   1.00
      0.0024675              1.0000000
S   1   1.00
      0.00123375              1.0000000
P   4   1.00
      1.770000D+01           4.301800D-02
      3.854000D+00           2.289130D-01
      1.046000D+00           5.087280D-01
      2.753000D-01           4.605310D-01
P   1   1.00
      2.753000D-01           1.000000D+00
P   1   1.00
      0.0685600              1.0000000
P   1   1.00
      0.03428              1.0000000
P   1   1.00
      0.01714              1.0000000
P   1   1.00
      0.00857              1.0000000
D   1   1.00
      1.185000D+00           1.0000000
D   1   1.00
      0.3320000              1.0000000
****
S     0
S   12   1.00
      1.108000D+05           2.476350D-04
      1.661000D+04           1.920260D-03
      3.781000D+03           9.961920D-03
      1.071000D+03           4.029750D-02
      3.498000D+02           1.286040D-01
      1.263000D+02           3.034800D-01
      4.926000D+01           4.214320D-01
      2.016000D+01           2.307810D-01
      5.720000D+00           1.789710D-02
      2.182000D+00          -2.975160D-03
      4.327000D-01           8.495220D-04
      1.570000D-01          -3.679360D-04
S   12   1.00
      1.108000D+05          -6.870390D-05
      1.661000D+04          -5.276810D-04
      3.781000D+03          -2.796710D-03
      1.071000D+03          -1.126510D-02
      3.498000D+02          -3.888340D-02
      1.263000D+02          -9.950250D-02
      4.926000D+01          -1.997400D-01
      2.016000D+01          -1.233600D-01
      5.720000D+00           5.131940D-01
      2.182000D+00           6.071200D-01
      4.327000D-01           3.967530D-02
      1.570000D-01          -9.468640D-03
S   12   1.00
      1.108000D+05           1.990770D-05
      1.661000D+04           1.534830D-04
      3.781000D+03           8.095030D-04
      1.071000D+03           3.289740D-03
      3.498000D+02           1.129670D-02
      1.263000D+02           2.963850D-02
      4.926000D+01           5.998510D-02
      2.016000D+01           4.132480D-02
      5.720000D+00          -2.074740D-01
      2.182000D+00          -3.928890D-01
      4.327000D-01           6.328400D-01
      1.570000D-01           5.569240D-01
S   1   1.00
      1.570000D-01           1.000000D+00
S   1   1.00
      0.0507000              1.0000000
S   1   1.00
      0.02535              1.0000000
S   1   1.00
      0.012675              1.0000000
S   1   1.00
      0.0063375              1.0000000
S   1   1.00
      0.00316875              1.0000000
S   1   1.00
      0.00158438              1.0000000
S   1   1.00
      0.00079219              1.0000000

             Standard Nuclear Orientation (Angstroms)
    I     Atom           X                Y                Z
 ----------------------------------------------------------------
    1      C       0.3041925454    -0.6776264092    -0.0029450656
    2      C      -1.1732590272    -0.9793122817     0.0054135796
    3      C      -2.1811698693     0.1161609573     0.0060853273
    4      C      -1.7505977254     1.3859015030    -0.0068157214
    5      C      -0.3226053194     1.7256393723    -0.0165693611
    6      C       0.7216938215     0.6356502311    -0.0041852120
    7      O      -1.5573332663    -2.1450223408     0.0132304238
    8      C      -3.6206900839    -0.2925728802     0.0177474967
    9      O       0.0195326242     2.9055994585    -0.0342794513
   10      O       1.9209697565     1.2656395186     0.0153197219
   11      C       3.2265507378     0.7073756205     0.0456852335
   12      O       0.9295089992    -1.8820775566    -0.0147057041
   13      C       2.3229527838    -2.1521358740    -0.0333742725
   14      H      -3.8378952401    -0.9031487053     0.9007838588
   15      H      -4.2716491679     0.5849866397     0.0134961029
   16      H      -3.8471426797    -0.9194165330    -0.8514543494
   17      H       2.8181266165    -1.7829152431     0.8704837240
   18      H       2.3856885888    -3.2411472797    -0.0600398912
   19      H       2.8028682538    -1.7396177365    -0.9268946819
   20      H       3.8876374650     1.5748144686     0.0752928074
   21      H       3.3858495388     0.0994124517     0.9424344758
   22      H       3.4377811059     0.1213962924    -0.8546600892
   23      H      -2.4250965699     2.2380415726    -0.0122139062
 ----------------------------------------------------------------

   20    -646.0796976740      7.22e-11  Convergence criterion met
 Total energy =  -646.07969767
        Solving for EOMEA-CC2/MP2 A transitions.
 EOMEA transition 1/A
 Total energy = -648.18118705 a.u.  Excitation energy = -1.2649 eV.
 EOMEA transition 2/A
 Total energy = -648.13528476 a.u.  Excitation energy = -0.0158 eV.
 Excited state properties for  EOMEA-CC2 transition 1/A
 Excited state properties for  EOMEA-CC2 transition 2/A
 EOM-EA-CC2 state  1/A -- Reference  transition
 EOM-EA-CC2 state  2/A -- Reference  transition

                    Orbital Energies (a.u.)
 --------------------------------------------------------------

 Alpha MOs
 -- Occupied --
-20.6112 -20.6108 -20.5746 -20.5690 -11.3595 -11.3556 -11.3425 -11.3409
-11.3097 -11.3094 -11.2838 -11.2662 -11.2447  -1.4423  -1.4292  -1.3923
 -1.3859  -1.1481  -1.0805  -1.0054  -0.9882  -0.9545  -0.9032  -0.8249
 -0.8032  -0.7498  -0.7282  -0.7023  -0.6883  -0.6589  -0.6544  -0.6448
 -0.6321  -0.6154  -0.6060  -0.5900  -0.5726  -0.5662  -0.5506  -0.5402
 -0.5171  -0.5116  -0.5063  -0.4885  -0.4498  -0.4324  -0.3897  -0.3409

          Ground-State Mulliken Net Atomic Charges

     Atom                 Charge (a.u.)
  ----------------------------------------
      1 C                     1.943852
      2 C                    -1.031722
      3 C                     0.756966
      4 C                     1.985413
      5 C                    -0.989068
      6 C                     1.720857
      7 O                    -1.082232
      8 C                     0.680792
      9 O                    -1.077279
     10 O                    -1.296411
     11 C                     1.132014
     12 O                    -1.625905
     13 C                     1.145858
     14 H                     0.002457
     15 H                    -0.146322
     16 H                     0.023922
     17 H                     0.010882
     18 H                    -0.666914
     19 H                     0.020174
     20 H                    -0.678217
     21 H                    -0.059138
     22 H                    -0.046974
     23 H                    -0.723006
  ----------------------------------------
  Sum of atomic charges =     0.000000

                    Cartesian Multipole Moments
 -----------------------------------------------------------------
    Charge (ESU x 10^10)
                -0.0000
    Dipole Moment (Debye)
         X       2.1617      Y      -1.3207      Z       0.0460
       Tot       2.5336
    Quadrupole Moments (Debye-Ang)
        XX     -56.4405     XY     -10.5621     YY     -94.8764
        XZ       0.0820     YZ       0.2891     ZZ     -75.6483

 Total job time:  1329.25s(wall), 33847.86s(cpu)
        *  Thank you very much for using Q-Chem.  Have a nice day.  *
