 Q-Chem 6.2 (devel), Q-Chem, Inc., Pleasanton, CA (2024)
 Q-Chem 6.2.1 for Intel X86 EM64T Linux

User input:
--------------------------------------------------------------
$molecule
0 1
C 0.000000 0.000000 0.000000
C -0.745703 -1.281459 -0.090516
C 0.012877 -2.566841 0.000000
C 1.356117 -2.538290 0.044012
C 2.123303 -1.276821 -0.000000
C 1.369528 -0.000000 -0.020791
O -1.969639 -1.301439 -0.239840
C -0.803782 -3.822835 0.010857
O 3.353996 -1.292417 -0.016715
O 2.133712 1.118779 0.024855
C 1.965586 2.088763 -1.034111
O -0.633043 1.197443 0.000143
C -2.007301 1.337316 0.441051
H -1.431534 -3.879632 -0.884899
H -0.156869 -4.701835 0.057205
H -1.486947 -3.831631 0.867405
H -2.101706 2.400128 0.670917
H -2.699014 1.044591 -0.348420
H -2.190392 0.738928 1.335937
H 2.714409 2.855822 -0.835854
H 2.166373 1.612826 -2.000149
H 0.960967 2.517513 -1.022354
H 1.954961 -3.444008 0.096686
$end
!dih1 -160 dih2 -060
$end

$rem
   CCMAN2                       1
   MEM_TOTAL                    120000
   CC_MEMORY			115000
   MEM_STATIC                   2000
   METHOD                       cc2
   BASIS                        gen
   PURECART                     11
   AUX_BASIS                    rimp2-aug-cc-pVDZ
   N_FROZEN_CORE                fc
   EA_STATES                    [2]
   SCF_CONVERGENCE              10
   MAX_SCF_CYCLES               200
   CC_CONVERGENCE               8
   EOM_DAVIDSON_CONVERGENCE     8
   CC_TRANS_PROP		TRUE
   CC_DO_DYSON			TRUE
   CC_EOM_PROP			TRUE
   !PRINT_ORBITALS               TRUE
$end

$basis
H     0
S   4   1.00
      1.301000D+01           1.968500D-02
      1.962000D+00           1.379770D-01
      4.446000D-01           4.781480D-01
      1.220000D-01           5.012400D-01
S   1   1.00
      1.220000D-01           1.000000D+00
S   1   1.00
      0.0297400              1.0000000
S   1   1.00
      0.01487              1.0000000
S   1   1.00
      0.007435              1.0000000
S   1   1.00
      0.0037175              1.0000000
P   1   1.00
      7.270000D-01           1.0000000
P   1   1.00
      0.1410000              1.0000000
****
C     0
S   9   1.00
      6.665000D+03           6.920000D-04
      1.000000D+03           5.329000D-03
      2.280000D+02           2.707700D-02
      6.471000D+01           1.017180D-01
      2.106000D+01           2.747400D-01
      7.495000D+00           4.485640D-01
      2.797000D+00           2.850740D-01
      5.215000D-01           1.520400D-02
      1.596000D-01          -3.191000D-03
S   9   1.00
      6.665000D+03          -1.460000D-04
      1.000000D+03          -1.154000D-03
      2.280000D+02          -5.725000D-03
      6.471000D+01          -2.331200D-02
      2.106000D+01          -6.395500D-02
      7.495000D+00          -1.499810D-01
      2.797000D+00          -1.272620D-01
      5.215000D-01           5.445290D-01
      1.596000D-01           5.804960D-01
S   1   1.00
      1.596000D-01           1.000000D+00
S   1   1.00
      0.0469000              1.0000000
S   1   1.00
      0.02345              1.0000000
S   1   1.00
      0.011725              1.0000000
S   1   1.00
      0.0058625              1.0000000
S   1   1.00
      0.00293125              1.0000000
S   1   1.00
      0.00146562              1.0000000
S   1   1.00
      0.00073281              1.0000000
P   4   1.00
      9.439000D+00           3.810900D-02
      2.002000D+00           2.094800D-01
      5.456000D-01           5.085570D-01
      1.517000D-01           4.688420D-01
P   1   1.00
      1.517000D-01           1.000000D+00
P   1   1.00
      0.0404100              1.0000000
P   1   1.00
      0.020205              1.0000000
P   1   1.00
      0.0101025              1.0000000
P   1   1.00
      0.00505125              1.0000000
D   1   1.00
      5.500000D-01           1.0000000
D   1   1.00
      0.1510000              1.0000000
****
N     0
S   9   1.00
      9.046000D+03           7.000000D-04
      1.357000D+03           5.389000D-03
      3.093000D+02           2.740600D-02
      8.773000D+01           1.032070D-01
      2.856000D+01           2.787230D-01
      1.021000D+01           4.485400D-01
      3.838000D+00           2.782380D-01
      7.466000D-01           1.544000D-02
      2.248000D-01          -2.864000D-03
S   9   1.00
      9.046000D+03          -1.530000D-04
      1.357000D+03          -1.208000D-03
      3.093000D+02          -5.992000D-03
      8.773000D+01          -2.454400D-02
      2.856000D+01          -6.745900D-02
      1.021000D+01          -1.580780D-01
      3.838000D+00          -1.218310D-01
      7.466000D-01           5.490030D-01
      2.248000D-01           5.788150D-01
S   1   1.00
      2.248000D-01           1.000000D+00
S   1   1.00
      0.0612400              1.0000000
S   1   1.00
      0.03062              1.0000000
S   1   1.00
      0.01531              1.0000000
S   1   1.00
      0.007655              1.0000000
S   1   1.00
      0.0038275              1.0000000
S   1   1.00
      0.00191375              1.0000000
S   1   1.00
      0.000956875              1.0000000
P   4   1.00
      1.355000D+01           3.991900D-02
      2.917000D+00           2.171690D-01
      7.973000D-01           5.103190D-01
      2.185000D-01           4.622140D-01
P   1   1.00
      2.185000D-01           1.000000D+00
P   1   1.00
      0.0561100              1.0000000
P   1   1.00
      0.028055              1.0000000
P   1   1.00
      0.0140275              1.0000000
P   1   1.00
      0.00701375              1.0000000
D   1   1.00
      8.170000D-01           1.0000000
D   1   1.00
      0.2300000              1.0000000
****
O     0
S   9   1.00
      1.172000D+04           7.100000D-04
      1.759000D+03           5.470000D-03
      4.008000D+02           2.783700D-02
      1.137000D+02           1.048000D-01
      3.703000D+01           2.830620D-01
      1.327000D+01           4.487190D-01
      5.025000D+00           2.709520D-01
      1.013000D+00           1.545800D-02
      3.023000D-01          -2.585000D-03
S   9   1.00
      1.172000D+04          -1.600000D-04
      1.759000D+03          -1.263000D-03
      4.008000D+02          -6.267000D-03
      1.137000D+02          -2.571600D-02
      3.703000D+01          -7.092400D-02
      1.327000D+01          -1.654110D-01
      5.025000D+00          -1.169550D-01
      1.013000D+00           5.573680D-01
      3.023000D-01           5.727590D-01
S   1   1.00
      3.023000D-01           1.000000D+00
S   1   1.00
      0.0789600              1.0000000
S   1   1.00
      0.03948              1.0000000
S   1   1.00
      0.01974              1.0000000
S   1   1.00
      0.00987              1.0000000
S   1   1.00
      0.004935              1.0000000
S   1   1.00
      0.0024675              1.0000000
S   1   1.00
      0.00123375              1.0000000
P   4   1.00
      1.770000D+01           4.301800D-02
      3.854000D+00           2.289130D-01
      1.046000D+00           5.087280D-01
      2.753000D-01           4.605310D-01
P   1   1.00
      2.753000D-01           1.000000D+00
P   1   1.00
      0.0685600              1.0000000
P   1   1.00
      0.03428              1.0000000
P   1   1.00
      0.01714              1.0000000
P   1   1.00
      0.00857              1.0000000
D   1   1.00
      1.185000D+00           1.0000000
D   1   1.00
      0.3320000              1.0000000
****
S     0
S   12   1.00
      1.108000D+05           2.476350D-04
      1.661000D+04           1.920260D-03
      3.781000D+03           9.961920D-03
      1.071000D+03           4.029750D-02
      3.498000D+02           1.286040D-01
      1.263000D+02           3.034800D-01
      4.926000D+01           4.214320D-01
      2.016000D+01           2.307810D-01
      5.720000D+00           1.789710D-02
      2.182000D+00          -2.975160D-03
      4.327000D-01           8.495220D-04
      1.570000D-01          -3.679360D-04
S   12   1.00
      1.108000D+05          -6.870390D-05
      1.661000D+04          -5.276810D-04
      3.781000D+03          -2.796710D-03
      1.071000D+03          -1.126510D-02
      3.498000D+02          -3.888340D-02
      1.263000D+02          -9.950250D-02
      4.926000D+01          -1.997400D-01
      2.016000D+01          -1.233600D-01
      5.720000D+00           5.131940D-01
      2.182000D+00           6.071200D-01
      4.327000D-01           3.967530D-02
      1.570000D-01          -9.468640D-03
S   12   1.00
      1.108000D+05           1.990770D-05
      1.661000D+04           1.534830D-04
      3.781000D+03           8.095030D-04
      1.071000D+03           3.289740D-03
      3.498000D+02           1.129670D-02
      1.263000D+02           2.963850D-02
      4.926000D+01           5.998510D-02
      2.016000D+01           4.132480D-02
      5.720000D+00          -2.074740D-01
      2.182000D+00          -3.928890D-01
      4.327000D-01           6.328400D-01
      1.570000D-01           5.569240D-01
S   1   1.00
      1.570000D-01           1.000000D+00
S   1   1.00
      0.0507000              1.0000000
S   1   1.00
      0.02535              1.0000000
S   1   1.00
      0.012675              1.0000000
S   1   1.00
      0.0063375              1.0000000
S   1   1.00
      0.00316875              1.0000000
S   1   1.00
      0.00158438              1.0000000
S   1   1.00
      0.00079219              1.0000000

             Standard Nuclear Orientation (Angstroms)
    I     Atom           X                Y                Z
 ----------------------------------------------------------------
    1      C       0.3167016966    -0.6393706702    -0.0799122977
    2      C      -1.1519572241    -0.7186354690     0.1278407903
    3      C      -1.9617488946     0.5358425596     0.0480537312
    4      C      -1.3358254581     1.7170855657    -0.0931224907
    5      C       0.1350716674     1.8300514289    -0.1673910070
    6      C       0.9340310692     0.5808771877    -0.1569760329
    7      O      -1.7084983685    -1.7932253982     0.3649792056
    8      C      -3.4474609566     0.3777028140     0.1586078561
    9      O       0.6757890413     2.9335877180    -0.2378201697
   10      O       2.2696878025     0.7521903018    -0.3131813522
   11      C       3.1389121320     0.2060996621     0.7050417960
   12      O       1.0976888355    -1.7459171422    -0.0949852086
   13      C       0.5703255927    -3.0509991547    -0.4431207025
   14      H      -3.7111953218    -0.1187937587     1.0986145700
   15      H      -3.9424121534     1.3503197316     0.1103874141
   16      H      -3.8284519757    -0.2616667197    -0.6454560132
   17      H       1.4559647319    -3.6263251915    -0.7187350994
   18      H       0.0596899154    -3.5018339820     0.4074193750
   19      H      -0.1134715808    -2.9793768296    -1.2914738918
   20      H       4.1429033863     0.5169468800     0.4155650245
   21      H       2.8801041034     0.6402224720     1.6769557094
   22      H       3.0678846991    -0.8832571650     0.7435246737
   23      H      -1.8766520377     2.6587571841    -0.1428714210
 ----------------------------------------------------------------

   21    -646.1032120208      7.21e-11  Convergence criterion met
 Total energy =  -646.10321202
        Solving for EOMEA-CC2/MP2 A transitions.
 EOMEA transition 1/A
 Total energy = -648.21609608 a.u.  Excitation energy = -1.6491 eV.
 EOMEA transition 2/A
 Total energy = -648.15546602 a.u.  Excitation energy = 0.0007 eV.
 Excited state properties for  EOMEA-CC2 transition 1/A
 Excited state properties for  EOMEA-CC2 transition 2/A
 EOM-EA-CC2 state  1/A -- Reference  transition
 EOM-EA-CC2 state  2/A -- Reference  transition

                    Orbital Energies (a.u.)
 --------------------------------------------------------------

 Alpha MOs
 -- Occupied --
-20.6110 -20.5957 -20.5898 -20.5751 -11.3757 -11.3575 -11.3370 -11.3270
-11.2986 -11.2913 -11.2903 -11.2746 -11.2515  -1.4400  -1.4166  -1.4030
 -1.3855  -1.1548  -1.0769  -0.9972  -0.9754  -0.9437  -0.9117  -0.8354
 -0.8134  -0.7452  -0.7103  -0.7064  -0.6714  -0.6569  -0.6480  -0.6405
 -0.6312  -0.6124  -0.6049  -0.5895  -0.5715  -0.5603  -0.5589  -0.5441
 -0.5369  -0.5209  -0.5121  -0.4738  -0.4443  -0.4392  -0.3968  -0.3447

          Ground-State Mulliken Net Atomic Charges

     Atom                 Charge (a.u.)
  ----------------------------------------
      1 C                     1.443334
      2 C                     0.249247
      3 C                     0.743555
      4 C                     2.147850
      5 C                    -0.449531
      6 C                     0.427245
      7 O                    -0.937681
      8 C                     0.621208
      9 O                    -1.057446
     10 O                    -1.339890
     11 C                     0.927613
     12 O                    -0.951380
     13 C                     1.071972
     14 H                    -0.041283
     15 H                    -0.288722
     16 H                    -0.077746
     17 H                    -0.508616
     18 H                    -0.221687
     19 H                    -0.166318
     20 H                    -0.324554
     21 H                    -0.147311
     22 H                    -0.252591
     23 H                    -0.867270
  ----------------------------------------
  Sum of atomic charges =     0.000000

                    Cartesian Multipole Moments
 -----------------------------------------------------------------
    Charge (ESU x 10^10)
                -0.0000
    Dipole Moment (Debye)
         X      -1.4125      Y      -2.4783      Z       0.5769
       Tot       2.9103
    Quadrupole Moments (Debye-Ang)
        XX     -69.7636     XY     -11.2241     YY     -84.0417
        XZ       4.6375     YZ       4.1447     ZZ     -75.6392

 Total job time:  1362.08s(wall), 35519.33s(cpu)
        *  Thank you very much for using Q-Chem.  Have a nice day.  *
