 Q-Chem 6.2 (devel), Q-Chem, Inc., Pleasanton, CA (2024)
 Q-Chem 6.2.1 for Intel X86 EM64T Linux

User input:
--------------------------------------------------------------
$molecule
0 1
C 0.000000 0.000000 0.000000
C 1.489545 -0.000000 0.044623
C 2.211930 1.307078 -0.000000
C 1.507234 2.452540 0.002684
C 0.029187 2.475481 0.000000
C -0.685911 1.183503 0.029472
O 2.126668 -1.049234 0.146738
C 3.708527 1.238353 -0.019921
O -0.582574 3.543535 -0.063246
O -2.042772 1.229556 0.124924
C -2.750446 1.002360 -1.113299
O -0.720386 -1.141299 0.031403
C -0.175160 -2.409138 -0.412331
H 4.056112 0.679635 -0.896106
H 4.139866 2.241850 -0.039243
H 4.080520 0.698506 0.857377
H 0.465822 -2.844035 0.353957
H -1.057795 -3.028499 -0.580829
H 0.387770 -2.288167 -1.340716
H -2.506780 1.793482 -1.830707
H -2.499752 0.018609 -1.524746
H -3.809771 1.042989 -0.858303
H 1.988825 3.427291 -0.008013
Ne 0.273696 -9.800167 -17.121257
Ne 0.273696 11.229077 -17.121257
Ne 0.273696 -9.800167 16.904775
Ne 0.273696 11.229077 16.904775
Ne -10.240926 -16.298561 -0.108241
Ne 10.788318 -16.298561 -0.108241
Ne -10.240926 17.727471 -0.108241
Ne 10.788318 17.727471 -0.108241
Ne -16.739320 0.714455 -10.622863
Ne 17.286712 0.714455 -10.622863
Ne -16.739320 0.714455 10.406381
Ne 17.286712 0.714455 10.406381
$end

$rem
   CCMAN2                       1
   MEM_TOTAL                    500000
   CC_MEMORY			495000
   MEM_STATIC                   2000
   METHOD                       cc2
   BASIS                        gen
   PURECART                     11
   AUX_BASIS                    rimp2-aug-cc-pVDZ
   N_FROZEN_CORE                fc
   EA_STATES                    [2]
   SCF_CONVERGENCE              10
   MAX_SCF_CYCLES               200
   CC_CONVERGENCE               8
   EOM_DAVIDSON_CONVERGENCE     8
   CC_TRANS_PROP		TRUE
   CC_DO_DYSON			TRUE
   CC_EOM_PROP			TRUE
   !PRINT_ORBITALS               TRUE
$end

$basis
H     0
S   4   1.00
      1.301000D+01           1.968500D-02
      1.962000D+00           1.379770D-01
      4.446000D-01           4.781480D-01
      1.220000D-01           5.012400D-01
S   1   1.00
      1.220000D-01           1.000000D+00
S   1   1.00
      0.0297400              1.0000000
S   1   1.00
      0.01487              1.0000000
S   1   1.00
      0.007435              1.0000000
S   1   1.00
      0.0037175              1.0000000
P   1   1.00
      7.270000D-01           1.0000000
P   1   1.00
      0.1410000              1.0000000
****
C     0
S   9   1.00
      6.665000D+03           6.920000D-04
      1.000000D+03           5.329000D-03
      2.280000D+02           2.707700D-02
      6.471000D+01           1.017180D-01
      2.106000D+01           2.747400D-01
      7.495000D+00           4.485640D-01
      2.797000D+00           2.850740D-01
      5.215000D-01           1.520400D-02
      1.596000D-01          -3.191000D-03
S   9   1.00
      6.665000D+03          -1.460000D-04
      1.000000D+03          -1.154000D-03
      2.280000D+02          -5.725000D-03
      6.471000D+01          -2.331200D-02
      2.106000D+01          -6.395500D-02
      7.495000D+00          -1.499810D-01
      2.797000D+00          -1.272620D-01
      5.215000D-01           5.445290D-01
      1.596000D-01           5.804960D-01
S   1   1.00
      1.596000D-01           1.000000D+00
S   1   1.00
      0.0469000              1.0000000
S   1   1.00
      0.02345              1.0000000
S   1   1.00
      0.011725              1.0000000
S   1   1.00
      0.0058625              1.0000000
S   1   1.00
      0.00293125              1.0000000
S   1   1.00
      0.00146562              1.0000000
S   1   1.00
      0.00073281              1.0000000
P   4   1.00
      9.439000D+00           3.810900D-02
      2.002000D+00           2.094800D-01
      5.456000D-01           5.085570D-01
      1.517000D-01           4.688420D-01
P   1   1.00
      1.517000D-01           1.000000D+00
P   1   1.00
      0.0404100              1.0000000
P   1   1.00
      0.020205              1.0000000
P   1   1.00
      0.0101025              1.0000000
P   1   1.00
      0.00505125              1.0000000
D   1   1.00
      5.500000D-01           1.0000000
D   1   1.00
      0.1510000              1.0000000
****
N     0
S   9   1.00
      9.046000D+03           7.000000D-04
      1.357000D+03           5.389000D-03
      3.093000D+02           2.740600D-02
      8.773000D+01           1.032070D-01
      2.856000D+01           2.787230D-01
      1.021000D+01           4.485400D-01
      3.838000D+00           2.782380D-01
      7.466000D-01           1.544000D-02
      2.248000D-01          -2.864000D-03
S   9   1.00
      9.046000D+03          -1.530000D-04
      1.357000D+03          -1.208000D-03
      3.093000D+02          -5.992000D-03
      8.773000D+01          -2.454400D-02
      2.856000D+01          -6.745900D-02
      1.021000D+01          -1.580780D-01
      3.838000D+00          -1.218310D-01
      7.466000D-01           5.490030D-01
      2.248000D-01           5.788150D-01
S   1   1.00
      2.248000D-01           1.000000D+00
S   1   1.00
      0.0612400              1.0000000
S   1   1.00
      0.03062              1.0000000
S   1   1.00
      0.01531              1.0000000
S   1   1.00
      0.007655              1.0000000
S   1   1.00
      0.0038275              1.0000000
S   1   1.00
      0.00191375              1.0000000
S   1   1.00
      0.000956875              1.0000000
P   4   1.00
      1.355000D+01           3.991900D-02
      2.917000D+00           2.171690D-01
      7.973000D-01           5.103190D-01
      2.185000D-01           4.622140D-01
P   1   1.00
      2.185000D-01           1.000000D+00
P   1   1.00
      0.0561100              1.0000000
P   1   1.00
      0.028055              1.0000000
P   1   1.00
      0.0140275              1.0000000
P   1   1.00
      0.00701375              1.0000000
D   1   1.00
      8.170000D-01           1.0000000
D   1   1.00
      0.2300000              1.0000000
****
O     0
S   9   1.00
      1.172000D+04           7.100000D-04
      1.759000D+03           5.470000D-03
      4.008000D+02           2.783700D-02
      1.137000D+02           1.048000D-01
      3.703000D+01           2.830620D-01
      1.327000D+01           4.487190D-01
      5.025000D+00           2.709520D-01
      1.013000D+00           1.545800D-02
      3.023000D-01          -2.585000D-03
S   9   1.00
      1.172000D+04          -1.600000D-04
      1.759000D+03          -1.263000D-03
      4.008000D+02          -6.267000D-03
      1.137000D+02          -2.571600D-02
      3.703000D+01          -7.092400D-02
      1.327000D+01          -1.654110D-01
      5.025000D+00          -1.169550D-01
      1.013000D+00           5.573680D-01
      3.023000D-01           5.727590D-01
S   1   1.00
      3.023000D-01           1.000000D+00
S   1   1.00
      0.0789600              1.0000000
S   1   1.00
      0.03948              1.0000000
S   1   1.00
      0.01974              1.0000000
S   1   1.00
      0.00987              1.0000000
S   1   1.00
      0.004935              1.0000000
S   1   1.00
      0.0024675              1.0000000
S   1   1.00
      0.00123375              1.0000000
P   4   1.00
      1.770000D+01           4.301800D-02
      3.854000D+00           2.289130D-01
      1.046000D+00           5.087280D-01
      2.753000D-01           4.605310D-01
P   1   1.00
      2.753000D-01           1.000000D+00
P   1   1.00
      0.0685600              1.0000000
P   1   1.00
      0.03428              1.0000000
P   1   1.00
      0.01714              1.0000000
P   1   1.00
      0.00857              1.0000000
D   1   1.00
      1.185000D+00           1.0000000
D   1   1.00
      0.3320000              1.0000000
****
S     0
S   12   1.00
      1.108000D+05           2.476350D-04
      1.661000D+04           1.920260D-03
      3.781000D+03           9.961920D-03
      1.071000D+03           4.029750D-02
      3.498000D+02           1.286040D-01
      1.263000D+02           3.034800D-01
      4.926000D+01           4.214320D-01
      2.016000D+01           2.307810D-01
      5.720000D+00           1.789710D-02
      2.182000D+00          -2.975160D-03
      4.327000D-01           8.495220D-04
      1.570000D-01          -3.679360D-04
S   12   1.00
      1.108000D+05          -6.870390D-05
      1.661000D+04          -5.276810D-04
      3.781000D+03          -2.796710D-03
      1.071000D+03          -1.126510D-02
      3.498000D+02          -3.888340D-02
      1.263000D+02          -9.950250D-02
      4.926000D+01          -1.997400D-01
      2.016000D+01          -1.233600D-01
      5.720000D+00           5.131940D-01
      2.182000D+00           6.071200D-01
      4.327000D-01           3.967530D-02
      1.570000D-01          -9.468640D-03
S   12   1.00
      1.108000D+05           1.990770D-05
      1.661000D+04           1.534830D-04
      3.781000D+03           8.095030D-04
      1.071000D+03           3.289740D-03
      3.498000D+02           1.129670D-02
      1.263000D+02           2.963850D-02
      4.926000D+01           5.998510D-02
      2.016000D+01           4.132480D-02
      5.720000D+00          -2.074740D-01
      2.182000D+00          -3.928890D-01
      4.327000D-01           6.328400D-01
      1.570000D-01           5.569240D-01
S   1   1.00
      1.570000D-01           1.000000D+00
S   1   1.00
      0.0507000              1.0000000
S   1   1.00
      0.02535              1.0000000

             Standard Nuclear Orientation (Angstroms)
    I     Atom           X                Y                Z
 ----------------------------------------------------------------
    1      C       0.2312098792    -0.7104111385    -0.1642034765
    2      C      -1.2530915318    -0.6413695005    -0.0509864611
    3      C      -1.9030000696     0.6954759979     0.0998353032
    4      C      -1.1480608421     1.8073049781     0.0489439357
    5      C       0.3215383643     1.7628662515    -0.1042219863
    6      C       0.9665209021     0.4410077147    -0.2388638656
    7      O      -1.9472302097    -1.6572563551    -0.1092150754
    8      C      -3.3908683915     0.6944089973     0.2763835131
    9      O       0.9873255435     2.7997861628    -0.0815183724
   10      O       2.3065901961     0.4279045467    -0.4762376862
   11      C       3.1281129711     0.1342409767     0.6746223176
   12      O       0.8885061820    -1.8819924125    -0.2978613747
   13      C       0.3322075750    -3.1356000925     0.1718051327
   14      H      -3.6714294945     0.1278370743     1.1713488830
   15      H      -3.7689466991     1.7155665760     0.3642862686
   16      H      -3.8781661397     0.1967654157    -0.5688129887
   17      H      -0.4056199313    -3.5193010346    -0.5321655924
   18      H       1.1967394930    -3.7989557665     0.2317048823
   19      H      -0.1240441381    -3.0151094619     1.1570661429
   20      H       2.9992365781     0.9152878231     1.4317736076
   21      H       2.8747031009    -0.8481876616     1.0875624511
   22      H       4.1556774425     0.1337195762     0.3099935797
   23      H      -1.5783444951     2.8022856374     0.1329278318
   24      Ne      1.2777046083   -10.9623209831    16.6601484370
   25      Ne      2.2913405275    10.0369183660    17.1434622028
   26      Ne     -2.2811530700   -10.0120015130   -17.1659107274
   27      Ne     -1.2675171508    10.9872378360   -16.6825969616
   28      Ne      9.6297071541   -17.4548472376    -1.5145666944
   29      Ne    -11.2596170877   -16.4977193637     0.7101000592
   30      Ne     11.2698045452    16.5226362167    -0.7325485837
   31      Ne     -9.6195196966    17.4797640906     1.4921181698
   32      Ne     18.0046597536    -1.0555391620     8.6418094997
   33      Ne    -15.7949773189     0.4931262901    12.2413959682
   34      Ne     15.8051647764    -0.4682094371   -12.2638444928
   35      Ne    -17.9944722962     1.0804560150    -8.6642580242
 ----------------------------------------------------------------

   21   -2188.0604155572      4.11e-11  Convergence criterion met
 Total energy = -2188.06041556
        Solving for EOMEA-CC2/MP2 A transitions.
 EOMEA transition 1/A
 Total energy = -2192.67610616 a.u.  Excitation energy = -1.7043 eV.
 EOMEA transition 2/A
 Total energy = -2192.61365783 a.u.  Excitation energy = -0.0050 eV.
 Excited state properties for  EOMEA-CC2 transition 1/A
 Excited state properties for  EOMEA-CC2 transition 2/A
 EOM-EA-CC2 state  1/A -- Reference  transition
 EOM-EA-CC2 state  2/A -- Reference  transition

                    Orbital Energies (a.u.)
 --------------------------------------------------------------

 Alpha MOs
 -- Occupied --
-32.7957 -32.7957 -32.7954 -32.7953 -32.7952 -32.7951 -32.7950 -32.7949
-32.7947 -32.7942 -32.7942 -32.7939 -20.6118 -20.5929 -20.5921 -20.5752
-11.3776 -11.3581 -11.3405 -11.3222 -11.2991 -11.2924 -11.2918 -11.2762
-11.2524  -1.9412  -1.9411  -1.9409  -1.9408  -1.9407  -1.9406  -1.9405
 -1.9404  -1.9402  -1.9397  -1.9397  -1.9394  -1.4410  -1.4161  -1.4045
 -1.3845  -1.1557  -1.0773  -0.9978  -0.9713  -0.9451  -0.9140  -0.8538
 -0.8538  -0.8538  -0.8538  -0.8538  -0.8538  -0.8535  -0.8535  -0.8535
 -0.8534  -0.8534  -0.8534  -0.8533  -0.8533  -0.8533  -0.8532  -0.8532
 -0.8532  -0.8531  -0.8531  -0.8531  -0.8530  -0.8530  -0.8530  -0.8528
 -0.8528  -0.8528  -0.8523  -0.8523  -0.8523  -0.8523  -0.8523  -0.8523
 -0.8520  -0.8520  -0.8520  -0.8370  -0.8133  -0.7469  -0.7102  -0.7069
 -0.6700  -0.6594  -0.6474  -0.6367  -0.6310  -0.6161  -0.6058  -0.5893
 -0.5723  -0.5600  -0.5584  -0.5452  -0.5381  -0.5221  -0.5139  -0.4732
 -0.4440  -0.4368  -0.3979  -0.3489

          Ground-State Mulliken Net Atomic Charges

     Atom                 Charge (a.u.)
  ----------------------------------------
      1 C                     1.509874
      2 C                     0.190535
      3 C                     0.551150
      4 C                     2.192919
      5 C                    -0.283241
      6 C                     0.565043
      7 O                    -0.893972
      8 C                     0.598155
      9 O                    -1.062942
     10 O                    -1.190358
     11 C                     0.891947
     12 O                    -1.135732
     13 C                     0.911477
     14 H                    -0.018553
     15 H                    -0.307108
     16 H                     0.041087
     17 H                    -0.243713
     18 H                    -0.497648
     19 H                    -0.093213
     20 H                    -0.205297
     21 H                    -0.276775
     22 H                    -0.353644
     23 H                    -0.890131
     24 Ne                    0.000011
     25 Ne                    0.000007
     26 Ne                    0.000011
     27 Ne                    0.000008
     28 Ne                    0.000017
     29 Ne                    0.000013
     30 Ne                    0.000014
     31 Ne                    0.000013
     32 Ne                    0.000010
     33 Ne                    0.000013
     34 Ne                    0.000012
     35 Ne                    0.000013
  ----------------------------------------
  Sum of atomic charges =     0.000000

                    Cartesian Multipole Moments
 -----------------------------------------------------------------
    Charge (ESU x 10^10)
                -0.0000
    Dipole Moment (Debye)
         X      -1.6743      Y      -2.0071      Z       2.2029
       Tot       3.4183
    Quadrupole Moments (Debye-Ang)
        XX    -123.2671     XY     -11.5981     YY    -132.0143
        XZ       4.0367     YZ      -0.8760     ZZ    -126.9017

 Total job time:  35629.67s(wall), 483644.70s(cpu)
        *  Thank you very much for using Q-Chem.  Have a nice day.  *
