 Q-Chem 6.2 (devel), Q-Chem, Inc., Pleasanton, CA (2024)
 Q-Chem 6.2.1 for Intel X86 EM64T Linux

User input:
--------------------------------------------------------------
$molecule
0 1
C 0.000000 0.000000 0.000000
C -0.746907 -1.288750 0.044623
C 0.021745 -2.569166 -0.000000
C 1.366152 -2.533838 0.002684
C 2.127142 -1.266540 0.000000
C 1.367901 0.000000 0.029472
O -1.974175 -1.313865 0.146738
C -0.788159 -3.829555 -0.019921
O 3.357976 -1.272804 -0.063246
O 2.088121 1.150859 0.124924
C 2.246402 1.877060 -1.113299
O -0.626223 1.195560 0.031403
C -1.996547 1.359569 -0.412331
H -1.445850 -3.850126 -0.896106
H -0.136224 -4.705935 -0.039243
H -1.441762 -3.880706 0.857377
H -2.694228 1.023065 0.353957
H -2.089833 2.433790 -0.580829
H -2.174155 0.811865 -1.340716
H 2.808696 1.269546 -1.830707
H 1.269558 2.153446 -1.524746
H 2.812735 2.773212 -0.858303
H 1.968018 -3.439281 -0.008013
O -5.792700 -1.286042 -4.703559
H -5.741397 -1.286386 -3.740064
H -4.860542 -1.285212 -4.952625
$end

$rem
   CCMAN2                       1
   MEM_TOTAL                    120000
   CC_MEMORY			115000
   MEM_STATIC                   2000
   METHOD                       cc2
   BASIS                        gen
   PURECART                     11
   AUX_BASIS                    rimp2-aug-cc-pVDZ
   N_FROZEN_CORE                fc
   EA_STATES                    [2]
   SCF_CONVERGENCE              10
   MAX_SCF_CYCLES               200
   CC_CONVERGENCE               8
   EOM_DAVIDSON_CONVERGENCE     8
   CC_TRANS_PROP		TRUE
   CC_DO_DYSON			TRUE
   CC_EOM_PROP			TRUE
   !PRINT_ORBITALS               TRUE
$end

$basis
H     0
S   4   1.00
      1.301000D+01           1.968500D-02
      1.962000D+00           1.379770D-01
      4.446000D-01           4.781480D-01
      1.220000D-01           5.012400D-01
S   1   1.00
      1.220000D-01           1.000000D+00
S   1   1.00
      0.0297400              1.0000000
S   1   1.00
      0.01487              1.0000000
S   1   1.00
      0.007435              1.0000000
S   1   1.00
      0.0037175              1.0000000
P   1   1.00
      7.270000D-01           1.0000000
P   1   1.00
      0.1410000              1.0000000
****
C     0
S   9   1.00
      6.665000D+03           6.920000D-04
      1.000000D+03           5.329000D-03
      2.280000D+02           2.707700D-02
      6.471000D+01           1.017180D-01
      2.106000D+01           2.747400D-01
      7.495000D+00           4.485640D-01
      2.797000D+00           2.850740D-01
      5.215000D-01           1.520400D-02
      1.596000D-01          -3.191000D-03
S   9   1.00
      6.665000D+03          -1.460000D-04
      1.000000D+03          -1.154000D-03
      2.280000D+02          -5.725000D-03
      6.471000D+01          -2.331200D-02
      2.106000D+01          -6.395500D-02
      7.495000D+00          -1.499810D-01
      2.797000D+00          -1.272620D-01
      5.215000D-01           5.445290D-01
      1.596000D-01           5.804960D-01
S   1   1.00
      1.596000D-01           1.000000D+00
S   1   1.00
      0.0469000              1.0000000
S   1   1.00
      0.02345              1.0000000
S   1   1.00
      0.011725              1.0000000
S   1   1.00
      0.0058625              1.0000000
S   1   1.00
      0.00293125              1.0000000
S   1   1.00
      0.00146562              1.0000000
S   1   1.00
      0.00073281              1.0000000
P   4   1.00
      9.439000D+00           3.810900D-02
      2.002000D+00           2.094800D-01
      5.456000D-01           5.085570D-01
      1.517000D-01           4.688420D-01
P   1   1.00
      1.517000D-01           1.000000D+00
P   1   1.00
      0.0404100              1.0000000
P   1   1.00
      0.020205              1.0000000
P   1   1.00
      0.0101025              1.0000000
P   1   1.00
      0.00505125              1.0000000
D   1   1.00
      5.500000D-01           1.0000000
D   1   1.00
      0.1510000              1.0000000
****
N     0
S   9   1.00
      9.046000D+03           7.000000D-04
      1.357000D+03           5.389000D-03
      3.093000D+02           2.740600D-02
      8.773000D+01           1.032070D-01
      2.856000D+01           2.787230D-01
      1.021000D+01           4.485400D-01
      3.838000D+00           2.782380D-01
      7.466000D-01           1.544000D-02
      2.248000D-01          -2.864000D-03
S   9   1.00
      9.046000D+03          -1.530000D-04
      1.357000D+03          -1.208000D-03
      3.093000D+02          -5.992000D-03
      8.773000D+01          -2.454400D-02
      2.856000D+01          -6.745900D-02
      1.021000D+01          -1.580780D-01
      3.838000D+00          -1.218310D-01
      7.466000D-01           5.490030D-01
      2.248000D-01           5.788150D-01
S   1   1.00
      2.248000D-01           1.000000D+00
S   1   1.00
      0.0612400              1.0000000
S   1   1.00
      0.03062              1.0000000
S   1   1.00
      0.01531              1.0000000
S   1   1.00
      0.007655              1.0000000
S   1   1.00
      0.0038275              1.0000000
S   1   1.00
      0.00191375              1.0000000
S   1   1.00
      0.000956875              1.0000000
P   4   1.00
      1.355000D+01           3.991900D-02
      2.917000D+00           2.171690D-01
      7.973000D-01           5.103190D-01
      2.185000D-01           4.622140D-01
P   1   1.00
      2.185000D-01           1.000000D+00
P   1   1.00
      0.0561100              1.0000000
P   1   1.00
      0.028055              1.0000000
P   1   1.00
      0.0140275              1.0000000
P   1   1.00
      0.00701375              1.0000000
D   1   1.00
      8.170000D-01           1.0000000
D   1   1.00
      0.2300000              1.0000000
****
O     0
S   9   1.00
      1.172000D+04           7.100000D-04
      1.759000D+03           5.470000D-03
      4.008000D+02           2.783700D-02
      1.137000D+02           1.048000D-01
      3.703000D+01           2.830620D-01
      1.327000D+01           4.487190D-01
      5.025000D+00           2.709520D-01
      1.013000D+00           1.545800D-02
      3.023000D-01          -2.585000D-03
S   9   1.00
      1.172000D+04          -1.600000D-04
      1.759000D+03          -1.263000D-03
      4.008000D+02          -6.267000D-03
      1.137000D+02          -2.571600D-02
      3.703000D+01          -7.092400D-02
      1.327000D+01          -1.654110D-01
      5.025000D+00          -1.169550D-01
      1.013000D+00           5.573680D-01
      3.023000D-01           5.727590D-01
S   1   1.00
      3.023000D-01           1.000000D+00
S   1   1.00
      0.0789600              1.0000000
S   1   1.00
      0.03948              1.0000000
S   1   1.00
      0.01974              1.0000000
S   1   1.00
      0.00987              1.0000000
S   1   1.00
      0.004935              1.0000000
S   1   1.00
      0.0024675              1.0000000
S   1   1.00
      0.00123375              1.0000000
P   4   1.00
      1.770000D+01           4.301800D-02
      3.854000D+00           2.289130D-01
      1.046000D+00           5.087280D-01
      2.753000D-01           4.605310D-01
P   1   1.00
      2.753000D-01           1.000000D+00
P   1   1.00
      0.0685600              1.0000000
P   1   1.00
      0.03428              1.0000000
P   1   1.00
      0.01714              1.0000000
P   1   1.00
      0.00857              1.0000000
D   1   1.00
      1.185000D+00           1.0000000
D   1   1.00
      0.3320000              1.0000000
****
S     0
S   12   1.00
      1.108000D+05           2.476350D-04
      1.661000D+04           1.920260D-03
      3.781000D+03           9.961920D-03
      1.071000D+03           4.029750D-02
      3.498000D+02           1.286040D-01
      1.263000D+02           3.034800D-01
      4.926000D+01           4.214320D-01
      2.016000D+01           2.307810D-01
      5.720000D+00           1.789710D-02
      2.182000D+00          -2.975160D-03
      4.327000D-01           8.495220D-04
      1.570000D-01          -3.679360D-04
S   12   1.00
      1.108000D+05          -6.870390D-05
      1.661000D+04          -5.276810D-04
      3.781000D+03          -2.796710D-03
      1.071000D+03          -1.126510D-02
      3.498000D+02          -3.888340D-02
      1.263000D+02          -9.950250D-02
      4.926000D+01          -1.997400D-01
      2.016000D+01          -1.233600D-01
      5.720000D+00           5.131940D-01
      2.182000D+00           6.071200D-01
      4.327000D-01           3.967530D-02
      1.570000D-01          -9.468640D-03
S   12   1.00
      1.108000D+05           1.990770D-05
      1.661000D+04           1.534830D-04
      3.781000D+03           8.095030D-04
      1.071000D+03           3.289740D-03
      3.498000D+02           1.129670D-02
      1.263000D+02           2.963850D-02
      4.926000D+01           5.998510D-02
      2.016000D+01           4.132480D-02
      5.720000D+00          -2.074740D-01
      2.182000D+00          -3.928890D-01
      4.327000D-01           6.328400D-01
      1.570000D-01           5.569240D-01
S   1   1.00
      1.570000D-01           1.000000D+00
S   1   1.00
      0.0507000              1.0000000
S   1   1.00
      0.02535              1.0000000
S   1   1.00
      0.012675              1.0000000
S   1   1.00
      0.0063375              1.0000000
S   1   1.00
      0.00316875              1.0000000
S   1   1.00
      0.00158438              1.0000000
S   1   1.00

             Standard Nuclear Orientation (Angstroms)
    I     Atom           X                Y                Z
 ----------------------------------------------------------------
    1      C       0.4308708662     0.5305803713     0.5409466334
    2      C      -0.4147530308    -0.6850939741     0.7076618152
    3      C       0.0822747366    -1.9879023478     0.1710651489
    4      C       1.3094780146    -2.0531064700    -0.3752003450
    5      C       2.1813017593    -0.8673153222    -0.5129679639
    6      C       1.6848771143     0.4240320491     0.0041621986
    7      O      -1.4929066091    -0.6380975042     1.3014809575
    8      C      -0.8418705193    -3.1590928140     0.3095938629
    9      O       3.2734729886    -0.9525700668    -1.0776672327
   10      O       2.5415494298     1.4804496754    -0.0448144621
   11      C       2.3027389899     2.4112798244    -1.1228412580
   12      O       0.0458447986     1.7422058593     0.9950652433
   13      C      -1.3496754099     2.0869218983     1.1828972954
   14      H      -1.7865686173    -2.9671301420    -0.2113443369
   15      H      -0.3829810755    -4.0621886493    -0.0993962091
   16      H      -1.0980256387    -3.3246593944     1.3614671203
   17      H      -1.7304098140     1.6657849856     2.1128844098
   18      H      -1.3466198833     3.1776190658     1.2205132927
   19      H      -1.9544225245     1.7367587512     0.3432011126
   20      H       2.4443723343     1.9084902688    -2.0856832490
   21      H       1.2934067517     2.8309930382    -1.0521920809
   22      H       3.0458321348     3.1997649101    -1.0005780921
   23      H       1.7221146096    -2.9825849339    -0.7598884780
   24      O      -6.8635964632     0.5764942712    -1.4891722980
   25      H      -6.4383428619     0.3925410077    -0.6428418055
   26      H      -6.1147236983     0.5549339225    -2.0971836725
 ----------------------------------------------------------------

   21    -722.1448888429      6.34e-11  Convergence criterion met
 Total energy =  -722.14488884
        Solving for EOMEA-CC2/MP2 A transitions.
 EOMEA transition 1/A
 Total energy = -724.48526549 a.u.  Excitation energy = -1.8037 eV.
 EOMEA transition 2/A
 Total energy = -724.42112948 a.u.  Excitation energy = -0.0584 eV.
 Excited state properties for  EOMEA-CC2 transition 1/A
 Excited state properties for  EOMEA-CC2 transition 2/A
 EOM-EA-CC2 state  1/A -- Reference  transition
 EOM-EA-CC2 state  2/A -- Reference  transition

                    Orbital Energies (a.u.)
 --------------------------------------------------------------

 Alpha MOs
 -- Occupied --
-20.6155 -20.5967 -20.5952 -20.5828 -20.5787 -11.3816 -11.3613 -11.3438
-11.3259 -11.3034 -11.2957 -11.2946 -11.2797 -11.2559  -1.4447  -1.4197
 -1.4082  -1.3877  -1.3578  -1.1592  -1.0808  -1.0014  -0.9745  -0.9490
 -0.9173  -0.8406  -0.8168  -0.7504  -0.7137  -0.7131  -0.7107  -0.6737
 -0.6629  -0.6508  -0.6399  -0.6343  -0.6197  -0.6095  -0.5926  -0.5924
 -0.5758  -0.5634  -0.5620  -0.5489  -0.5420  -0.5251  -0.5178  -0.5127
 -0.4764  -0.4477  -0.4401  -0.4014  -0.3524

          Ground-State Mulliken Net Atomic Charges

     Atom                 Charge (a.u.)
  ----------------------------------------
      1 C                     1.328180
      2 C                     0.412063
      3 C                     0.482544
      4 C                     2.137361
      5 C                    -0.226636
      6 C                     0.550440
      7 O                    -0.972002
      8 C                     0.624373
      9 O                    -1.033224
     10 O                    -1.185605
     11 C                     1.028054
     12 O                    -1.120285
     13 C                     0.863167
     14 H                    -0.013938
     15 H                    -0.293821
     16 H                     0.075737
     17 H                    -0.206455
     18 H                    -0.599888
     19 H                    -0.212658
     20 H                    -0.178437
     21 H                    -0.197239
     22 H                    -0.370705
     23 H                    -0.901315
     24 O                    -0.277208
     25 H                     0.137886
     26 H                     0.149612
  ----------------------------------------
  Sum of atomic charges =     0.000000

                    Cartesian Multipole Moments
 -----------------------------------------------------------------
    Charge (ESU x 10^10)
                -0.0000
    Dipole Moment (Debye)
         X      -1.1865      Y      -0.3008      Z      -0.4388
       Tot       1.3003
    Quadrupole Moments (Debye-Ang)
        XX    -125.5452     XY       3.3077     YY     -71.5816
        XZ      -3.2968     YZ      -2.4456     ZZ     -83.6547

 Total job time:  2089.72s(wall), 54217.18s(cpu)
        *  Thank you very much for using Q-Chem.  Have a nice day.  *
