 Q-Chem 6.2 (devel), Q-Chem, Inc., Pleasanton, CA (2024)
 Q-Chem 6.2.1 for Intel X86 EM64T Linux

User input:
--------------------------------------------------------------
$molecule
0 1
C 0.000000 0.000000 0.000000
C -0.753706 -1.283567 -0.022027
C 0.008019 -2.569387 -0.000000
C 1.353213 -2.539069 -0.010865
C 2.119867 -1.276342 -0.000000
C 1.365083 0.000000 -0.025911
O -1.983321 -1.294398 -0.090070
C -0.806796 -3.826093 0.010812
O 3.348989 -1.284792 0.073534
O 2.093702 1.141961 -0.133117
C 2.258740 1.888158 1.091831
O -0.654662 1.182937 -0.053088
C -1.831681 1.382593 0.772947
H -1.456896 -3.867265 -0.869951
H -0.160297 -4.706403 0.026293
H -1.469163 -3.847562 0.883227
H -1.897721 2.464584 0.898983
H -2.719575 0.989801 0.278616
H -1.700130 0.898915 1.745504
H 2.825960 2.778351 0.819098
H 1.284106 2.174483 1.501462
H 2.822453 1.292505 1.817923
H 1.951970 -3.446679 -0.011080
$end
!dih1 -140 dih2 0080
$end

$rem
   CCMAN2                       1
   MEM_TOTAL                    120000
   CC_MEMORY			115000
   MEM_STATIC                   2000
   METHOD                       cc2
   BASIS                        gen
   PURECART                     11
   AUX_BASIS                    rimp2-aug-cc-pVDZ
   N_FROZEN_CORE                fc
   EA_STATES                    [2]
   SCF_CONVERGENCE              10
   MAX_SCF_CYCLES               200
   CC_CONVERGENCE               8
   EOM_DAVIDSON_CONVERGENCE     8
   CC_TRANS_PROP		TRUE
   CC_DO_DYSON			TRUE
   CC_EOM_PROP			TRUE
   !PRINT_ORBITALS               TRUE
$end

$basis
H     0
S   4   1.00
      1.301000D+01           1.968500D-02
      1.962000D+00           1.379770D-01
      4.446000D-01           4.781480D-01
      1.220000D-01           5.012400D-01
S   1   1.00
      1.220000D-01           1.000000D+00
S   1   1.00
      0.0297400              1.0000000
S   1   1.00
      0.01487              1.0000000
S   1   1.00
      0.007435              1.0000000
S   1   1.00
      0.0037175              1.0000000
P   1   1.00
      7.270000D-01           1.0000000
P   1   1.00
      0.1410000              1.0000000
****
C     0
S   9   1.00
      6.665000D+03           6.920000D-04
      1.000000D+03           5.329000D-03
      2.280000D+02           2.707700D-02
      6.471000D+01           1.017180D-01
      2.106000D+01           2.747400D-01
      7.495000D+00           4.485640D-01
      2.797000D+00           2.850740D-01
      5.215000D-01           1.520400D-02
      1.596000D-01          -3.191000D-03
S   9   1.00
      6.665000D+03          -1.460000D-04
      1.000000D+03          -1.154000D-03
      2.280000D+02          -5.725000D-03
      6.471000D+01          -2.331200D-02
      2.106000D+01          -6.395500D-02
      7.495000D+00          -1.499810D-01
      2.797000D+00          -1.272620D-01
      5.215000D-01           5.445290D-01
      1.596000D-01           5.804960D-01
S   1   1.00
      1.596000D-01           1.000000D+00
S   1   1.00
      0.0469000              1.0000000
S   1   1.00
      0.02345              1.0000000
S   1   1.00
      0.011725              1.0000000
S   1   1.00
      0.0058625              1.0000000
S   1   1.00
      0.00293125              1.0000000
S   1   1.00
      0.00146562              1.0000000
S   1   1.00
      0.00073281              1.0000000
P   4   1.00
      9.439000D+00           3.810900D-02
      2.002000D+00           2.094800D-01
      5.456000D-01           5.085570D-01
      1.517000D-01           4.688420D-01
P   1   1.00
      1.517000D-01           1.000000D+00
P   1   1.00
      0.0404100              1.0000000
P   1   1.00
      0.020205              1.0000000
P   1   1.00
      0.0101025              1.0000000
P   1   1.00
      0.00505125              1.0000000
D   1   1.00
      5.500000D-01           1.0000000
D   1   1.00
      0.1510000              1.0000000
****
N     0
S   9   1.00
      9.046000D+03           7.000000D-04
      1.357000D+03           5.389000D-03
      3.093000D+02           2.740600D-02
      8.773000D+01           1.032070D-01
      2.856000D+01           2.787230D-01
      1.021000D+01           4.485400D-01
      3.838000D+00           2.782380D-01
      7.466000D-01           1.544000D-02
      2.248000D-01          -2.864000D-03
S   9   1.00
      9.046000D+03          -1.530000D-04
      1.357000D+03          -1.208000D-03
      3.093000D+02          -5.992000D-03
      8.773000D+01          -2.454400D-02
      2.856000D+01          -6.745900D-02
      1.021000D+01          -1.580780D-01
      3.838000D+00          -1.218310D-01
      7.466000D-01           5.490030D-01
      2.248000D-01           5.788150D-01
S   1   1.00
      2.248000D-01           1.000000D+00
S   1   1.00
      0.0612400              1.0000000
S   1   1.00
      0.03062              1.0000000
S   1   1.00
      0.01531              1.0000000
S   1   1.00
      0.007655              1.0000000
S   1   1.00
      0.0038275              1.0000000
S   1   1.00
      0.00191375              1.0000000
S   1   1.00
      0.000956875              1.0000000
P   4   1.00
      1.355000D+01           3.991900D-02
      2.917000D+00           2.171690D-01
      7.973000D-01           5.103190D-01
      2.185000D-01           4.622140D-01
P   1   1.00
      2.185000D-01           1.000000D+00
P   1   1.00
      0.0561100              1.0000000
P   1   1.00
      0.028055              1.0000000
P   1   1.00
      0.0140275              1.0000000
P   1   1.00
      0.00701375              1.0000000
D   1   1.00
      8.170000D-01           1.0000000
D   1   1.00
      0.2300000              1.0000000
****
O     0
S   9   1.00
      1.172000D+04           7.100000D-04
      1.759000D+03           5.470000D-03
      4.008000D+02           2.783700D-02
      1.137000D+02           1.048000D-01
      3.703000D+01           2.830620D-01
      1.327000D+01           4.487190D-01
      5.025000D+00           2.709520D-01
      1.013000D+00           1.545800D-02
      3.023000D-01          -2.585000D-03
S   9   1.00
      1.172000D+04          -1.600000D-04
      1.759000D+03          -1.263000D-03
      4.008000D+02          -6.267000D-03
      1.137000D+02          -2.571600D-02
      3.703000D+01          -7.092400D-02
      1.327000D+01          -1.654110D-01
      5.025000D+00          -1.169550D-01
      1.013000D+00           5.573680D-01
      3.023000D-01           5.727590D-01
S   1   1.00
      3.023000D-01           1.000000D+00
S   1   1.00
      0.0789600              1.0000000
S   1   1.00
      0.03948              1.0000000
S   1   1.00
      0.01974              1.0000000
S   1   1.00
      0.00987              1.0000000
S   1   1.00
      0.004935              1.0000000
S   1   1.00
      0.0024675              1.0000000
S   1   1.00
      0.00123375              1.0000000
P   4   1.00
      1.770000D+01           4.301800D-02
      3.854000D+00           2.289130D-01
      1.046000D+00           5.087280D-01
      2.753000D-01           4.605310D-01
P   1   1.00
      2.753000D-01           1.000000D+00
P   1   1.00
      0.0685600              1.0000000
P   1   1.00
      0.03428              1.0000000
P   1   1.00
      0.01714              1.0000000
P   1   1.00
      0.00857              1.0000000
D   1   1.00
      1.185000D+00           1.0000000
D   1   1.00
      0.3320000              1.0000000
****
S     0
S   12   1.00
      1.108000D+05           2.476350D-04
      1.661000D+04           1.920260D-03
      3.781000D+03           9.961920D-03
      1.071000D+03           4.029750D-02
      3.498000D+02           1.286040D-01
      1.263000D+02           3.034800D-01
      4.926000D+01           4.214320D-01
      2.016000D+01           2.307810D-01
      5.720000D+00           1.789710D-02
      2.182000D+00          -2.975160D-03
      4.327000D-01           8.495220D-04
      1.570000D-01          -3.679360D-04
S   12   1.00
      1.108000D+05          -6.870390D-05
      1.661000D+04          -5.276810D-04
      3.781000D+03          -2.796710D-03
      1.071000D+03          -1.126510D-02
      3.498000D+02          -3.888340D-02
      1.263000D+02          -9.950250D-02
      4.926000D+01          -1.997400D-01
      2.016000D+01          -1.233600D-01
      5.720000D+00           5.131940D-01
      2.182000D+00           6.071200D-01
      4.327000D-01           3.967530D-02
      1.570000D-01          -9.468640D-03
S   12   1.00
      1.108000D+05           1.990770D-05
      1.661000D+04           1.534830D-04
      3.781000D+03           8.095030D-04
      1.071000D+03           3.289740D-03
      3.498000D+02           1.129670D-02
      1.263000D+02           2.963850D-02
      4.926000D+01           5.998510D-02
      2.016000D+01           4.132480D-02
      5.720000D+00          -2.074740D-01
      2.182000D+00          -3.928890D-01
      4.327000D-01           6.328400D-01
      1.570000D-01           5.569240D-01
S   1   1.00
      1.570000D-01           1.000000D+00
S   1   1.00
      0.0507000              1.0000000
S   1   1.00
      0.02535              1.0000000
S   1   1.00
      0.012675              1.0000000
S   1   1.00
      0.0063375              1.0000000
S   1   1.00
      0.00316875              1.0000000
S   1   1.00
      0.00158438              1.0000000
S   1   1.00
      0.00079219              1.0000000

             Standard Nuclear Orientation (Angstroms)
    I     Atom           X                Y                Z
 ----------------------------------------------------------------
    1      C       0.2544410041    -0.6816018293     0.2446581764
    2      C      -1.2276417627    -0.6883610906     0.1050617892
    3      C      -1.9419401797     0.6113357604    -0.0809734326
    4      C      -1.2381545536     1.7581204599    -0.0685326775
    5      C       0.2314043493     1.7872174007     0.0794736715
    6      C       0.9406675659     0.4985101380     0.2681491822
    7      O      -1.8649675646    -1.7399677700     0.1731750974
    8      C      -3.4282985579     0.5362331528    -0.2496409276
    9      O       0.8525652800     2.8476900446     0.0034709590
   10      O       2.2747822849     0.5629347756     0.5180313179
   11      C       3.1301489355     0.2518657139    -0.6027403086
   12      O       0.9312984650    -1.8353512837     0.4482921373
   13      C       0.5978705658    -3.0053387314    -0.3438727913
   14      H      -3.8873453657     0.0531991358     0.6198547725
   15      H      -3.8541896761     1.5339244944    -0.3776059887
   16      H      -3.6862859040    -0.0818318906    -1.1166686227
   17      H       1.5048419726    -3.6121374687    -0.3316646544
   18      H      -0.2403708061    -3.5429148615     0.0981314562
   19      H       0.3556594046    -2.7132504538    -1.3700966378
   20      H       4.1492065136     0.3137930077    -0.2203111547
   21      H       2.9278832305    -0.7595760974    -0.9712033904
   22      H       2.9834168759     0.9891741450    -1.3993772493
   23      H      -1.7132281679     2.7292880100    -0.1843107152
 ----------------------------------------------------------------

   21    -646.1057598657      6.83e-11  Convergence criterion met
 Total energy =  -646.10575987
        Solving for EOMEA-CC2/MP2 A transitions.
 EOMEA transition 1/A
 Total energy = -648.21857394 a.u.  Excitation energy = -1.7276 eV.
 EOMEA transition 2/A
 Total energy = -648.15531515 a.u.  Excitation energy = -0.0062 eV.
 Excited state properties for  EOMEA-CC2 transition 1/A
 Excited state properties for  EOMEA-CC2 transition 2/A
 EOM-EA-CC2 state  1/A -- Reference  transition
 EOM-EA-CC2 state  2/A -- Reference  transition

                    Orbital Energies (a.u.)
 --------------------------------------------------------------

 Alpha MOs
 -- Occupied --
-20.6080 -20.5952 -20.5912 -20.5781 -11.3745 -11.3603 -11.3367 -11.3271
-11.2991 -11.2953 -11.2932 -11.2765 -11.2524  -1.4392  -1.4176  -1.4028
 -1.3876  -1.1558  -1.0772  -0.9969  -0.9732  -0.9445  -0.9152  -0.8364
 -0.8147  -0.7480  -0.7121  -0.7046  -0.6672  -0.6606  -0.6496  -0.6383
 -0.6309  -0.6195  -0.6055  -0.5913  -0.5743  -0.5608  -0.5579  -0.5452
 -0.5370  -0.5241  -0.5061  -0.4764  -0.4419  -0.4381  -0.3986  -0.3559

          Ground-State Mulliken Net Atomic Charges

     Atom                 Charge (a.u.)
  ----------------------------------------
      1 C                     1.393824
      2 C                     0.117089
      3 C                     0.572090
      4 C                     2.188904
      5 C                    -0.428517
      6 C                     0.762002
      7 O                    -0.921691
      8 C                     0.698517
      9 O                    -1.018858
     10 O                    -1.178706
     11 C                     0.919269
     12 O                    -1.247979
     13 C                     0.850717
     14 H                    -0.024137
     15 H                    -0.268229
     16 H                    -0.041561
     17 H                    -0.368064
     18 H                    -0.194185
     19 H                    -0.066075
     20 H                    -0.351797
     21 H                    -0.285482
     22 H                    -0.240945
     23 H                    -0.866189
  ----------------------------------------
  Sum of atomic charges =     0.000000

                    Cartesian Multipole Moments
 -----------------------------------------------------------------
    Charge (ESU x 10^10)
                 0.0000
    Dipole Moment (Debye)
         X      -1.2696      Y      -1.7629      Z      -2.4675
       Tot       3.2876
    Quadrupole Moments (Debye-Ang)
        XX     -70.3996     XY     -11.6779     YY     -83.1961
        XZ      -4.0482     YZ       2.2015     ZZ     -76.4660

 Total job time:  1527.83s(wall), 39975.35s(cpu)
        *  Thank you very much for using Q-Chem.  Have a nice day.  *
