 Q-Chem 6.2 (devel), Q-Chem, Inc., Pleasanton, CA (2024)
 Q-Chem 6.2.1 for Intel X86 EM64T Linux

User input:
--------------------------------------------------------------
$molecule
0 1
C 0.000000 0.000000 0.000000
C -0.735976 -1.292552 -0.022427
C -0.015101 -2.613037 -0.000000
C 1.357682 -2.612782 0.037568
C 2.082454 -1.292159 0.000000
C 1.349360 0.000000 0.065833
O -1.964338 -1.280026 -0.049609
O 3.304640 -1.288589 -0.114482
O -0.965811 -3.578616 -0.067863
C -0.839014 -4.955573 0.259434
O 2.310026 -3.578415 0.026987
C 2.167161 -4.954303 0.353952
C -0.884794 1.212299 -0.009253
C 2.224746 1.229210 0.113009
C 2.936109 1.429314 1.429629
C 4.255933 1.403251 1.661423
C 5.309657 1.139071 0.622106
C 4.787707 1.643249 3.052033
H -0.312807 2.139224 -0.054345
H -1.511820 1.226362 0.889260
H -1.572788 1.168765 -0.859349
H -0.278611 -5.503865 -0.504197
H -1.865883 -5.324111 0.285462
H -0.377406 -5.092690 1.242683
H 1.649353 -5.508206 -0.435094
H 1.654422 -5.087950 1.312229
H 3.191776 -5.320784 0.436538
H 1.613151 2.111485 -0.099842
H 2.960434 1.143924 -0.692620
H 2.275266 1.620859 2.276914
H 4.894782 0.943265 -0.366777
H 5.905644 0.262822 0.907785
H 6.001778 1.989812 0.557775
H 5.362114 0.774215 3.400786
H 3.981547 1.834421 3.766239
H 5.474406 2.500541 3.066403
$end
!dih1 20 dih2 -20
$end

$rem
   CCMAN2                       1
   MEM_TOTAL                    1000000
   CC_MEMORY			950000
   MEM_STATIC                   2000
   METHOD                       cc2
   BASIS                        gen
   PURECART                     11
   AUX_BASIS                    rimp2-aug-cc-pVDZ
   N_FROZEN_CORE                fc
   EA_STATES                    [2]
   SCF_CONVERGENCE              10
   MAX_SCF_CYCLES               200
   CC_CONVERGENCE               8
   EOM_DAVIDSON_CONVERGENCE     8
   CC_TRANS_PROP		TRUE
   CC_DO_DYSON			TRUE
   CC_EOM_PROP			TRUE
   !PRINT_ORBITALS               TRUE
$end

$basis
H     0
S   4   1.00
      1.301000D+01           1.968500D-02
      1.962000D+00           1.379770D-01
      4.446000D-01           4.781480D-01
      1.220000D-01           5.012400D-01
S   1   1.00
      1.220000D-01           1.000000D+00
S   1   1.00
      0.0297400              1.0000000
S   1   1.00
      0.01487              1.0000000
S   1   1.00
      0.007435              1.0000000
S   1   1.00
      0.0037175              1.0000000
P   1   1.00
      7.270000D-01           1.0000000
P   1   1.00
      0.1410000              1.0000000
****
C     0
S   9   1.00
      6.665000D+03           6.920000D-04
      1.000000D+03           5.329000D-03
      2.280000D+02           2.707700D-02
      6.471000D+01           1.017180D-01
      2.106000D+01           2.747400D-01
      7.495000D+00           4.485640D-01
      2.797000D+00           2.850740D-01
      5.215000D-01           1.520400D-02
      1.596000D-01          -3.191000D-03
S   9   1.00
      6.665000D+03          -1.460000D-04
      1.000000D+03          -1.154000D-03
      2.280000D+02          -5.725000D-03
      6.471000D+01          -2.331200D-02
      2.106000D+01          -6.395500D-02
      7.495000D+00          -1.499810D-01
      2.797000D+00          -1.272620D-01
      5.215000D-01           5.445290D-01
      1.596000D-01           5.804960D-01
S   1   1.00
      1.596000D-01           1.000000D+00
S   1   1.00
      0.0469000              1.0000000
S   1   1.00
      0.02345              1.0000000
S   1   1.00
      0.011725              1.0000000
S   1   1.00
      0.0058625              1.0000000
S   1   1.00
      0.00293125              1.0000000
S   1   1.00
      0.00146562              1.0000000
S   1   1.00
      0.00073281              1.0000000
P   4   1.00
      9.439000D+00           3.810900D-02
      2.002000D+00           2.094800D-01
      5.456000D-01           5.085570D-01
      1.517000D-01           4.688420D-01
P   1   1.00
      1.517000D-01           1.000000D+00
P   1   1.00
      0.0404100              1.0000000
P   1   1.00
      0.020205              1.0000000
P   1   1.00
      0.0101025              1.0000000
P   1   1.00
      0.00505125              1.0000000
D   1   1.00
      5.500000D-01           1.0000000
D   1   1.00
      0.1510000              1.0000000
****
N     0
S   9   1.00
      9.046000D+03           7.000000D-04
      1.357000D+03           5.389000D-03
      3.093000D+02           2.740600D-02
      8.773000D+01           1.032070D-01
      2.856000D+01           2.787230D-01
      1.021000D+01           4.485400D-01
      3.838000D+00           2.782380D-01
      7.466000D-01           1.544000D-02
      2.248000D-01          -2.864000D-03
S   9   1.00
      9.046000D+03          -1.530000D-04
      1.357000D+03          -1.208000D-03
      3.093000D+02          -5.992000D-03
      8.773000D+01          -2.454400D-02
      2.856000D+01          -6.745900D-02
      1.021000D+01          -1.580780D-01
      3.838000D+00          -1.218310D-01
      7.466000D-01           5.490030D-01
      2.248000D-01           5.788150D-01
S   1   1.00
      2.248000D-01           1.000000D+00
S   1   1.00
      0.0612400              1.0000000
S   1   1.00
      0.03062              1.0000000
S   1   1.00
      0.01531              1.0000000
S   1   1.00
      0.007655              1.0000000
S   1   1.00
      0.0038275              1.0000000
S   1   1.00
      0.00191375              1.0000000
S   1   1.00
      0.000956875              1.0000000
P   4   1.00
      1.355000D+01           3.991900D-02
      2.917000D+00           2.171690D-01
      7.973000D-01           5.103190D-01
      2.185000D-01           4.622140D-01
P   1   1.00
      2.185000D-01           1.000000D+00
P   1   1.00
      0.0561100              1.0000000
P   1   1.00
      0.028055              1.0000000
P   1   1.00
      0.0140275              1.0000000
P   1   1.00
      0.00701375              1.0000000
D   1   1.00
      8.170000D-01           1.0000000
D   1   1.00
      0.2300000              1.0000000
****
O     0
S   9   1.00
      1.172000D+04           7.100000D-04
      1.759000D+03           5.470000D-03
      4.008000D+02           2.783700D-02
      1.137000D+02           1.048000D-01
      3.703000D+01           2.830620D-01
      1.327000D+01           4.487190D-01
      5.025000D+00           2.709520D-01
      1.013000D+00           1.545800D-02
      3.023000D-01          -2.585000D-03
S   9   1.00
      1.172000D+04          -1.600000D-04
      1.759000D+03          -1.263000D-03
      4.008000D+02          -6.267000D-03
      1.137000D+02          -2.571600D-02
      3.703000D+01          -7.092400D-02
      1.327000D+01          -1.654110D-01
      5.025000D+00          -1.169550D-01
      1.013000D+00           5.573680D-01
      3.023000D-01           5.727590D-01
S   1   1.00
      3.023000D-01           1.000000D+00
S   1   1.00
      0.0789600              1.0000000
S   1   1.00
      0.03948              1.0000000
S   1   1.00
      0.01974              1.0000000
S   1   1.00
      0.00987              1.0000000
S   1   1.00
      0.004935              1.0000000
S   1   1.00
      0.0024675              1.0000000
S   1   1.00
      0.00123375              1.0000000
P   4   1.00
      1.770000D+01           4.301800D-02
      3.854000D+00           2.289130D-01
      1.046000D+00           5.087280D-01
      2.753000D-01           4.605310D-01
P   1   1.00
      2.753000D-01           1.000000D+00
P   1   1.00
      0.0685600              1.0000000
P   1   1.00
      0.03428              1.0000000
P   1   1.00
      0.01714              1.0000000
P   1   1.00
      0.00857              1.0000000
D   1   1.00
      1.185000D+00           1.0000000
D   1   1.00
      0.3320000              1.0000000
****
S     0
S   12   1.00
      1.108000D+05           2.476350D-04
      1.661000D+04           1.920260D-03
      3.781000D+03           9.961920D-03
      1.071000D+03           4.029750D-02
      3.498000D+02           1.286040D-01
      1.263000D+02           3.034800D-01
      4.926000D+01           4.214320D-01
      2.016000D+01           2.307810D-01
      5.720000D+00           1.789710D-02
      2.182000D+00          -2.975160D-03
      4.327000D-01           8.495220D-04
      1.570000D-01          -3.679360D-04
S   12   1.00
      1.108000D+05          -6.870390D-05
      1.661000D+04          -5.276810D-04
      3.781000D+03          -2.796710D-03
      1.071000D+03          -1.126510D-02
      3.498000D+02          -3.888340D-02
      1.263000D+02          -9.950250D-02
      4.926000D+01          -1.997400D-01
      2.016000D+01          -1.233600D-01
      5.720000D+00           5.131940D-01
      2.182000D+00           6.071200D-01
      4.327000D-01           3.967530D-02
      1.570000D-01          -9.468640D-03
S   12   1.00
      1.108000D+05           1.990770D-05
      1.661000D+04           1.534830D-04
      3.781000D+03           8.095030D-04
      1.071000D+03           3.289740D-03
      3.498000D+02           1.129670D-02
      1.263000D+02           2.963850D-02
      4.926000D+01           5.998510D-02
      2.016000D+01           4.132480D-02
      5.720000D+00          -2.074740D-01
      2.182000D+00          -3.928890D-01
      4.327000D-01           6.328400D-01
      1.570000D-01           5.569240D-01
S   1   1.00
      1.570000D-01           1.000000D+00
S   1   1.00

             Standard Nuclear Orientation (Angstroms)
    I     Atom           X                Y                Z
 ----------------------------------------------------------------
    1      C      -0.2754386059    -1.9121205342     0.2036903454
    2      C      -1.7021008110    -1.5689490010    -0.0406916649
    3      C      -2.1862600002    -0.1444531764    -0.0250105831
    4      C      -1.2797771625     0.8559304531     0.2269140949
    5      C       0.1476302108     0.4797324958     0.5297906410
    6      C       0.6213416951    -0.9258491509     0.4231447684
    7      O      -2.5026168739    -2.4721505466    -0.2712778003
    8      O       0.9266698748     1.3538384583     0.8984279424
    9      O      -3.5249587509    -0.1841671125    -0.2420501054
   10      C      -4.3763415299     0.8767242142    -0.6529860393
   11      O      -1.3610681076     2.2038015978     0.3540097369
   12      C      -2.3882514531     3.0681005740    -0.1131796920
   13      C       0.0254326041    -3.3807473779     0.1313950142
   14      C       2.0982673606    -1.1222781183     0.6672547586
   15      C       2.9803266462    -0.6149789264    -0.4481761445
   16      C       3.8729553145     0.3835796102    -0.3987996407
   17      C       4.1566844545     1.2284567803     0.8119792448
   18      C       4.6817063543     0.7404351083    -1.6205830536
   19      H       1.0648770508    -3.6006442263     0.3755117698
   20      H      -0.1899191457    -3.7590724180    -0.8741788377
   21      H      -0.6314542506    -3.9326832543     0.8109247125
   22      H      -4.5654922290     1.5833045626     0.1611233931
   23      H      -5.3112390122     0.3843601117    -0.9259364846
   24      H      -3.9716657152     1.4000540137    -1.5253535189
   25      H      -3.2924662113     2.9930371003     0.4986114442
   26      H      -2.6239570858     2.8790756631    -1.1656862475
   27      H      -1.9671980251     4.0696070177    -0.0099153575
   28      H       2.2959926749    -2.1874877329     0.8221622955
   29      H       2.3520397374    -0.6076085701     1.5990613146
   30      H       2.8614158489    -1.1436079090    -1.3956498643
   31      H       3.5392437265     0.9651351702     1.6709201741
   32      H       3.9681088868     2.2852494005     0.5833880852
   33      H       5.2153834489     1.1458054332     1.0935025999
   34      H       4.4972298657     1.7827243103    -1.9145112664
   35      H       4.4400282566     0.0937017346    -2.4690278250
   36      H       5.7578125753     0.6569727117    -1.4162768711
 ----------------------------------------------------------------

   20    -840.0857308149      9.90e-11  Convergence criterion met
 Total energy =  -840.08573081
        Solving for EOMEA-CC2/MP2 A transitions.
 EOMEA transition 1/A
 Total energy = -842.92739083 a.u.  Excitation energy = -1.2968 eV.
 EOMEA transition 2/A
 Total energy = -842.88018043 a.u.  Excitation energy = -0.0122 eV.
 Excited state properties for  EOMEA-CC2 transition 1/A
 Excited state properties for  EOMEA-CC2 transition 2/A
 EOM-EA-CC2 state  1/A -- Reference  transition
 EOM-EA-CC2 state  2/A -- Reference  transition

                    Orbital Energies (a.u.)
 --------------------------------------------------------------

 Alpha MOs
 -- Occupied --
-20.6071 -20.6066 -20.5668 -20.5654 -11.3525 -11.3522 -11.3368 -11.3353
-11.3071 -11.3066 -11.2730 -11.2702 -11.2407 -11.2378 -11.2364 -11.2225
-11.2216 -11.2161  -1.4383  -1.4249  -1.3869  -1.3837  -1.1494  -1.0997
 -1.0774  -1.0174  -0.9989  -0.9740  -0.9416  -0.9336  -0.8983  -0.8717
 -0.8028  -0.7931  -0.7482  -0.7275  -0.7053  -0.6907  -0.6845  -0.6538
 -0.6504  -0.6424  -0.6278  -0.6233  -0.6092  -0.6070  -0.5899  -0.5862
 -0.5762  -0.5674  -0.5594  -0.5443  -0.5319  -0.5265  -0.5239  -0.5165
 -0.5096  -0.5083  -0.5037  -0.4979  -0.4828  -0.4665  -0.4456  -0.4263
 -0.3762  -0.3387  -0.3300

          Ground-State Mulliken Net Atomic Charges

     Atom                 Charge (a.u.)
  ----------------------------------------
      1 C                     0.726856
      2 C                    -0.800848
      3 C                     1.724979
      4 C                     1.734332
      5 C                    -1.169571
      6 C                     1.297606
      7 O                    -1.258345
      8 O                    -0.883586
      9 O                    -1.355413
     10 C                     1.159630
     11 O                    -1.379909
     12 C                     1.106379
     13 C                     0.847611
     14 C                     1.175487
     15 C                     1.450048
     16 C                    -1.095712
     17 C                     0.794432
     18 C                     0.936867
     19 H                    -0.294477
     20 H                     0.111858
     21 H                     0.043230
     22 H                    -0.176211
     23 H                    -0.661535
     24 H                    -0.004266
     25 H                    -0.147792
     26 H                    -0.113470
     27 H                    -0.687111
     28 H                    -0.255522
     29 H                    -0.216017
     30 H                    -1.114001
     31 H                    -0.541491
     32 H                     0.047192
     33 H                    -0.298582
     34 H                    -0.112627
     35 H                    -0.436059
     36 H                    -0.153962
  ----------------------------------------
  Sum of atomic charges =     0.000000

                    Cartesian Multipole Moments
 -----------------------------------------------------------------
    Charge (ESU x 10^10)
                 0.0000
    Dipole Moment (Debye)
         X      -0.9928      Y       2.0552      Z      -1.0968
       Tot       2.5322
    Quadrupole Moments (Debye-Ang)
        XX    -101.0250     XY     -19.2358     YY    -107.5230
        XZ       1.1464     YZ      -5.4443     ZZ    -107.8449

 Total job time:  6727.67s(wall), 175999.58s(cpu)
        *  Thank you very much for using Q-Chem.  Have a nice day.  *
