 Q-Chem 6.2 (devel), Q-Chem, Inc., Pleasanton, CA (2024)
 Q-Chem 6.2.1 for Intel X86 EM64T Linux

User input:
--------------------------------------------------------------
$molecule
0 1
C 0.000000 0.000000 0.000000
C -0.746662 -1.294961 -0.068132
C -0.002477 -2.570570 -0.000000
C 1.359385 -2.576367 -0.000760
C 2.106431 -1.288062 -0.000000
C 1.354143 0.000000 0.062050
O -1.970146 -1.298213 -0.209423
O 3.337499 -1.289492 -0.049103
O -0.742267 -3.708585 0.096203
C -0.888329 -4.454270 -1.130619
O 2.010927 -3.759972 0.063662
C 3.203555 -3.976468 -0.734371
C -0.878234 1.216468 0.003015
C 2.221392 1.236841 0.106108
C 2.935023 1.442825 1.420371
C 4.255883 1.457684 1.645208
C 5.310752 1.240010 0.595875
C 4.786588 1.701282 3.035484
H -0.313981 2.135525 0.160236
H -1.640289 1.124641 0.783479
H -1.423855 1.288801 -0.944850
H -1.456624 -5.346696 -0.866964
H 0.092992 -4.737397 -1.526483
H -1.443201 -3.860207 -1.865047
H 3.246193 -5.058681 -0.872139
H 4.088150 -3.612952 -0.212266
H 3.111675 -3.474787 -1.701332
H 1.604873 2.114735 -0.110268
H 2.955324 1.156226 -0.702215
H 2.273022 1.599078 2.273799
H 4.894778 1.043239 -0.392649
H 5.937826 0.381331 0.868196
H 5.973797 2.113550 0.534240
H 5.389247 0.847884 3.374581
H 3.977667 1.860527 3.754062
H 5.445348 2.580038 3.054332
$end
!dih1 -80 dih2 140
$end

$rem
   CCMAN2                       1
   MEM_TOTAL                    1000000
   CC_MEMORY			950000
   MEM_STATIC                   2000
   METHOD                       cc2
   BASIS                        gen
   PURECART                     11
   AUX_BASIS                    rimp2-aug-cc-pVDZ
   N_FROZEN_CORE                fc
   EA_STATES                    [2]
   SCF_CONVERGENCE              10
   MAX_SCF_CYCLES               200
   CC_CONVERGENCE               8
   EOM_DAVIDSON_CONVERGENCE     8
   CC_TRANS_PROP		TRUE
   CC_DO_DYSON			TRUE
   CC_EOM_PROP			TRUE
   !PRINT_ORBITALS               TRUE
$end

$basis
H     0
S   4   1.00
      1.301000D+01           1.968500D-02
      1.962000D+00           1.379770D-01
      4.446000D-01           4.781480D-01
      1.220000D-01           5.012400D-01
S   1   1.00
      1.220000D-01           1.000000D+00
S   1   1.00
      0.0297400              1.0000000
S   1   1.00
      0.01487              1.0000000
S   1   1.00
      0.007435              1.0000000
S   1   1.00
      0.0037175              1.0000000
P   1   1.00
      7.270000D-01           1.0000000
P   1   1.00
      0.1410000              1.0000000
****
C     0
S   9   1.00
      6.665000D+03           6.920000D-04
      1.000000D+03           5.329000D-03
      2.280000D+02           2.707700D-02
      6.471000D+01           1.017180D-01
      2.106000D+01           2.747400D-01
      7.495000D+00           4.485640D-01
      2.797000D+00           2.850740D-01
      5.215000D-01           1.520400D-02
      1.596000D-01          -3.191000D-03
S   9   1.00
      6.665000D+03          -1.460000D-04
      1.000000D+03          -1.154000D-03
      2.280000D+02          -5.725000D-03
      6.471000D+01          -2.331200D-02
      2.106000D+01          -6.395500D-02
      7.495000D+00          -1.499810D-01
      2.797000D+00          -1.272620D-01
      5.215000D-01           5.445290D-01
      1.596000D-01           5.804960D-01
S   1   1.00
      1.596000D-01           1.000000D+00
S   1   1.00
      0.0469000              1.0000000
S   1   1.00
      0.02345              1.0000000
S   1   1.00
      0.011725              1.0000000
S   1   1.00
      0.0058625              1.0000000
S   1   1.00
      0.00293125              1.0000000
S   1   1.00
      0.00146562              1.0000000
S   1   1.00
      0.00073281              1.0000000
P   4   1.00
      9.439000D+00           3.810900D-02
      2.002000D+00           2.094800D-01
      5.456000D-01           5.085570D-01
      1.517000D-01           4.688420D-01
P   1   1.00
      1.517000D-01           1.000000D+00
P   1   1.00
      0.0404100              1.0000000
P   1   1.00
      0.020205              1.0000000
P   1   1.00
      0.0101025              1.0000000
P   1   1.00
      0.00505125              1.0000000
D   1   1.00
      5.500000D-01           1.0000000
D   1   1.00
      0.1510000              1.0000000
****
N     0
S   9   1.00
      9.046000D+03           7.000000D-04
      1.357000D+03           5.389000D-03
      3.093000D+02           2.740600D-02
      8.773000D+01           1.032070D-01
      2.856000D+01           2.787230D-01
      1.021000D+01           4.485400D-01
      3.838000D+00           2.782380D-01
      7.466000D-01           1.544000D-02
      2.248000D-01          -2.864000D-03
S   9   1.00
      9.046000D+03          -1.530000D-04
      1.357000D+03          -1.208000D-03
      3.093000D+02          -5.992000D-03
      8.773000D+01          -2.454400D-02
      2.856000D+01          -6.745900D-02
      1.021000D+01          -1.580780D-01
      3.838000D+00          -1.218310D-01
      7.466000D-01           5.490030D-01
      2.248000D-01           5.788150D-01
S   1   1.00
      2.248000D-01           1.000000D+00
S   1   1.00
      0.0612400              1.0000000
S   1   1.00
      0.03062              1.0000000
S   1   1.00
      0.01531              1.0000000
S   1   1.00
      0.007655              1.0000000
S   1   1.00
      0.0038275              1.0000000
S   1   1.00
      0.00191375              1.0000000
S   1   1.00
      0.000956875              1.0000000
P   4   1.00
      1.355000D+01           3.991900D-02
      2.917000D+00           2.171690D-01
      7.973000D-01           5.103190D-01
      2.185000D-01           4.622140D-01
P   1   1.00
      2.185000D-01           1.000000D+00
P   1   1.00
      0.0561100              1.0000000
P   1   1.00
      0.028055              1.0000000
P   1   1.00
      0.0140275              1.0000000
P   1   1.00
      0.00701375              1.0000000
D   1   1.00
      8.170000D-01           1.0000000
D   1   1.00
      0.2300000              1.0000000
****
O     0
S   9   1.00
      1.172000D+04           7.100000D-04
      1.759000D+03           5.470000D-03
      4.008000D+02           2.783700D-02
      1.137000D+02           1.048000D-01
      3.703000D+01           2.830620D-01
      1.327000D+01           4.487190D-01
      5.025000D+00           2.709520D-01
      1.013000D+00           1.545800D-02
      3.023000D-01          -2.585000D-03
S   9   1.00
      1.172000D+04          -1.600000D-04
      1.759000D+03          -1.263000D-03
      4.008000D+02          -6.267000D-03
      1.137000D+02          -2.571600D-02
      3.703000D+01          -7.092400D-02
      1.327000D+01          -1.654110D-01
      5.025000D+00          -1.169550D-01
      1.013000D+00           5.573680D-01
      3.023000D-01           5.727590D-01
S   1   1.00
      3.023000D-01           1.000000D+00
S   1   1.00
      0.0789600              1.0000000
S   1   1.00
      0.03948              1.0000000
S   1   1.00
      0.01974              1.0000000
S   1   1.00
      0.00987              1.0000000
S   1   1.00
      0.004935              1.0000000
S   1   1.00
      0.0024675              1.0000000
S   1   1.00
      0.00123375              1.0000000
P   4   1.00
      1.770000D+01           4.301800D-02
      3.854000D+00           2.289130D-01
      1.046000D+00           5.087280D-01
      2.753000D-01           4.605310D-01
P   1   1.00
      2.753000D-01           1.000000D+00
P   1   1.00
      0.0685600              1.0000000
P   1   1.00
      0.03428              1.0000000
P   1   1.00
      0.01714              1.0000000
P   1   1.00
      0.00857              1.0000000
D   1   1.00
      1.185000D+00           1.0000000
D   1   1.00
      0.3320000              1.0000000
****
S     0
S   12   1.00
      1.108000D+05           2.476350D-04
      1.661000D+04           1.920260D-03
      3.781000D+03           9.961920D-03
      1.071000D+03           4.029750D-02
      3.498000D+02           1.286040D-01
      1.263000D+02           3.034800D-01
      4.926000D+01           4.214320D-01
      2.016000D+01           2.307810D-01
      5.720000D+00           1.789710D-02
      2.182000D+00          -2.975160D-03
      4.327000D-01           8.495220D-04
      1.570000D-01          -3.679360D-04
S   12   1.00
      1.108000D+05          -6.870390D-05
      1.661000D+04          -5.276810D-04
      3.781000D+03          -2.796710D-03
      1.071000D+03          -1.126510D-02
      3.498000D+02          -3.888340D-02
      1.263000D+02          -9.950250D-02
      4.926000D+01          -1.997400D-01
      2.016000D+01          -1.233600D-01
      5.720000D+00           5.131940D-01
      2.182000D+00           6.071200D-01
      4.327000D-01           3.967530D-02
      1.570000D-01          -9.468640D-03
S   12   1.00
      1.108000D+05           1.990770D-05
      1.661000D+04           1.534830D-04
      3.781000D+03           8.095030D-04
      1.071000D+03           3.289740D-03
      3.498000D+02           1.129670D-02
      1.263000D+02           2.963850D-02
      4.926000D+01           5.998510D-02
      2.016000D+01           4.132480D-02
      5.720000D+00          -2.074740D-01
      2.182000D+00          -3.928890D-01
      4.327000D-01           6.328400D-01
      1.570000D-01           5.569240D-01
S   1   1.00
      1.570000D-01           1.000000D+00
S   1   1.00

             Standard Nuclear Orientation (Angstroms)
    I     Atom           X                Y                Z
 ----------------------------------------------------------------
    1      C      -0.4853494105    -1.8278372115     0.2449486496
    2      C      -1.8842165843    -1.4520403736    -0.1305742791
    3      C      -2.2127282575    -0.0352183479    -0.3957667234
    4      C      -1.2868066209     0.9401376654    -0.1811692862
    5      C       0.0884501507     0.5735709103     0.2571293596
    6      C       0.4572828641    -0.8660510295     0.3997556317
    7      O      -2.7626261600    -2.3133030407    -0.1898200046
    8      O       0.9140590206     1.4556907574     0.4983266637
    9      O      -3.4542093973     0.2254103746    -0.8881280236
   10      C      -4.4078997055     0.7202498527     0.0752416530
   11      O      -1.6178893123     2.2269019909    -0.4345460606
   12      C      -1.1786155291     3.2796451458     0.4625933526
   13      C      -0.2675926863    -3.3035292433     0.4062356005
   14      C       1.8925492499    -1.1137361826     0.8028685954
   15      C       2.8967092442    -0.8326492407    -0.2887534466
   16      C       3.8734728415     0.0846136531    -0.2910479761
   17      C       4.1454997473     1.0560077918     0.8241314320
   18      C       4.7998547052     0.2041211159    -1.4748510626
   19      H       0.7800106672    -3.5527172715     0.5741587981
   20      H      -0.6248679454    -3.8328450987    -0.4828443681
   21      H      -0.8646465372    -3.6825125420     1.2436606749
   22      H      -5.3191657632     0.9210406477    -0.4888279883
   23      H      -4.0418294566     1.6430755456     0.5381081812
   24      H      -4.5995473607    -0.0431788036     0.8372299302
   25      H      -1.9156934643     4.0743058031     0.3313929126
   26      H      -0.1801022232     3.6233729178     0.1941380972
   27      H      -1.1830721454     2.9257789599     1.4969521862
   28      H       1.9985528301    -2.1524001682     1.1308205614
   29      H       2.1068305109    -0.4823219524     1.6711661494
   30      H       2.7953192249    -1.4684478824    -1.1699343737
   31      H       3.4446167439     0.9599359396     1.6538700103
   32      H       4.0757169396     2.0852074516     0.4491800037
   33      H       5.1669783573     0.9230508658     1.2054496481
   34      H       4.7361765063     1.2079500684    -1.9161506357
   35      H       4.5613006909    -0.5299205820    -2.2496679857
   36      H       5.8450891642     0.0593184080    -1.1698114035
 ----------------------------------------------------------------

   21    -840.1104874723      5.29e-11  Convergence criterion met
 Total energy =  -840.11048747
        Solving for EOMEA-CC2/MP2 A transitions.
 EOMEA transition 1/A
 Total energy = -842.96207657 a.u.  Excitation energy = -1.7013 eV.
 EOMEA transition 2/A
 Total energy = -842.89973918 a.u.  Excitation energy = -0.0050 eV.
 Excited state properties for  EOMEA-CC2 transition 1/A
 Excited state properties for  EOMEA-CC2 transition 2/A
 EOM-EA-CC2 state  1/A -- Reference  transition
 EOM-EA-CC2 state  2/A -- Reference  transition

                    Orbital Energies (a.u.)
 --------------------------------------------------------------

 Alpha MOs
 -- Occupied --
-20.6045 -20.5910 -20.5812 -20.5746 -11.3666 -11.3563 -11.3321 -11.3199
-11.2957 -11.2917 -11.2825 -11.2782 -11.2475 -11.2426 -11.2425 -11.2263
-11.2260 -11.2228  -1.4345  -1.4130  -1.3972  -1.3843  -1.1562  -1.1035
 -1.0756  -1.0239  -0.9737  -0.9717  -0.9392  -0.9308  -0.9099  -0.8803
 -0.8092  -0.8052  -0.7498  -0.7121  -0.7038  -0.6913  -0.6651  -0.6604
 -0.6467  -0.6325  -0.6294  -0.6180  -0.6140  -0.6068  -0.5915  -0.5889
 -0.5800  -0.5668  -0.5608  -0.5423  -0.5374  -0.5320  -0.5317  -0.5292
 -0.5191  -0.5175  -0.5093  -0.5017  -0.4728  -0.4721  -0.4359  -0.4331
 -0.3844  -0.3492  -0.3356

          Ground-State Mulliken Net Atomic Charges

     Atom                 Charge (a.u.)
  ----------------------------------------
      1 C                     0.731941
      2 C                    -0.203530
      3 C                     1.096064
      4 C                     1.277271
      5 C                    -0.345905
      6 C                     1.207323
      7 O                    -1.217101
      8 O                    -0.815847
      9 O                    -1.164668
     10 C                     0.948679
     11 O                    -1.437950
     12 C                     0.948794
     13 C                     0.549278
     14 C                     1.302401
     15 C                     1.193155
     16 C                    -0.875812
     17 C                     0.971491
     18 C                     0.754273
     19 H                    -0.157085
     20 H                     0.086453
     21 H                     0.058365
     22 H                    -0.443860
     23 H                    -0.305274
     24 H                    -0.197687
     25 H                    -0.558040
     26 H                    -0.186174
     27 H                    -0.222342
     28 H                    -0.257755
     29 H                    -0.260946
     30 H                    -1.090954
     31 H                    -0.435326
     32 H                     0.018124
     33 H                    -0.306744
     34 H                    -0.080675
     35 H                    -0.366035
     36 H                    -0.213904
  ----------------------------------------
  Sum of atomic charges =     0.000000

                    Cartesian Multipole Moments
 -----------------------------------------------------------------
    Charge (ESU x 10^10)
                -0.0000
    Dipole Moment (Debye)
         X       1.4270      Y       1.1768      Z       2.3872
       Tot       3.0199
    Quadrupole Moments (Debye-Ang)
        XX    -109.0509     XY     -10.9548     YY    -105.5391
        XZ      -7.5414     YZ       1.4473     ZZ    -109.0115

 Total job time:  7265.64s(wall), 196106.69s(cpu)
        *  Thank you very much for using Q-Chem.  Have a nice day.  *
