 Q-Chem 6.2 (devel), Q-Chem, Inc., Pleasanton, CA (2024)
 Q-Chem 6.2.1 for Intel X86 EM64T Linux

User input:
--------------------------------------------------------------
$molecule
0 1
C 0.000000 0.000000 0.000000
C -0.748965 -1.297912 -0.028780
C -0.002515 -2.568202 0.000000
C 1.358387 -2.574692 0.096889
C 2.102181 -1.288372 -0.000000
C 1.353182 -0.000000 0.064392
O -1.981231 -1.299073 -0.032807
O 3.318997 -1.293658 -0.194691
O -0.726474 -3.716427 -0.114858
C -0.951823 -4.424374 1.122516
O 1.988524 -3.766576 0.131993
C 3.336441 -3.889634 0.652099
C -0.878986 1.214851 -0.021170
C 2.228098 1.231792 0.094129
C 2.940611 1.450141 1.406714
C 4.260123 1.415909 1.641335
C 5.313713 1.135371 0.605676
C 4.792083 1.673859 3.028592
H -0.313827 2.141539 0.079227
H -1.616244 1.153320 0.785919
H -1.454577 1.245606 -0.953209
H -1.557613 -3.811342 1.799002
H 0.000964 -4.690146 1.593473
H -1.498178 -5.327735 0.849188
H 3.479420 -3.244049 1.521743
H 4.066998 -3.639779 -0.116763
H 3.415465 -4.939318 0.940927
H 1.617983 2.111046 -0.134014
H 2.962587 1.133460 -0.711440
H 2.281483 1.659662 2.251055
H 4.899684 0.936492 -0.382947
H 5.904569 0.257821 0.898761
H 6.011899 1.980566 0.536528
H 5.364628 0.808947 3.390357
H 3.986452 1.877916 3.739791
H 5.481108 2.529267 3.030124
$end
!dih1 80 dih2 -160
$end

$rem
   CCMAN2                       1
   MEM_TOTAL                    1000000
   CC_MEMORY			950000
   MEM_STATIC                   2000
   METHOD                       cc2
   BASIS                        gen
   PURECART                     11
   AUX_BASIS                    rimp2-aug-cc-pVDZ
   N_FROZEN_CORE                fc
   EA_STATES                    [2]
   SCF_CONVERGENCE              10
   MAX_SCF_CYCLES               200
   CC_CONVERGENCE               8
   EOM_DAVIDSON_CONVERGENCE     8
   CC_TRANS_PROP		TRUE
   CC_DO_DYSON			TRUE
   CC_EOM_PROP			TRUE
   !PRINT_ORBITALS               TRUE
$end

$basis
H     0
S   4   1.00
      1.301000D+01           1.968500D-02
      1.962000D+00           1.379770D-01
      4.446000D-01           4.781480D-01
      1.220000D-01           5.012400D-01
S   1   1.00
      1.220000D-01           1.000000D+00
S   1   1.00
      0.0297400              1.0000000
S   1   1.00
      0.01487              1.0000000
S   1   1.00
      0.007435              1.0000000
S   1   1.00
      0.0037175              1.0000000
P   1   1.00
      7.270000D-01           1.0000000
P   1   1.00
      0.1410000              1.0000000
****
C     0
S   9   1.00
      6.665000D+03           6.920000D-04
      1.000000D+03           5.329000D-03
      2.280000D+02           2.707700D-02
      6.471000D+01           1.017180D-01
      2.106000D+01           2.747400D-01
      7.495000D+00           4.485640D-01
      2.797000D+00           2.850740D-01
      5.215000D-01           1.520400D-02
      1.596000D-01          -3.191000D-03
S   9   1.00
      6.665000D+03          -1.460000D-04
      1.000000D+03          -1.154000D-03
      2.280000D+02          -5.725000D-03
      6.471000D+01          -2.331200D-02
      2.106000D+01          -6.395500D-02
      7.495000D+00          -1.499810D-01
      2.797000D+00          -1.272620D-01
      5.215000D-01           5.445290D-01
      1.596000D-01           5.804960D-01
S   1   1.00
      1.596000D-01           1.000000D+00
S   1   1.00
      0.0469000              1.0000000
S   1   1.00
      0.02345              1.0000000
S   1   1.00
      0.011725              1.0000000
S   1   1.00
      0.0058625              1.0000000
S   1   1.00
      0.00293125              1.0000000
S   1   1.00
      0.00146562              1.0000000
S   1   1.00
      0.00073281              1.0000000
P   4   1.00
      9.439000D+00           3.810900D-02
      2.002000D+00           2.094800D-01
      5.456000D-01           5.085570D-01
      1.517000D-01           4.688420D-01
P   1   1.00
      1.517000D-01           1.000000D+00
P   1   1.00
      0.0404100              1.0000000
P   1   1.00
      0.020205              1.0000000
P   1   1.00
      0.0101025              1.0000000
P   1   1.00
      0.00505125              1.0000000
D   1   1.00
      5.500000D-01           1.0000000
D   1   1.00
      0.1510000              1.0000000
****
N     0
S   9   1.00
      9.046000D+03           7.000000D-04
      1.357000D+03           5.389000D-03
      3.093000D+02           2.740600D-02
      8.773000D+01           1.032070D-01
      2.856000D+01           2.787230D-01
      1.021000D+01           4.485400D-01
      3.838000D+00           2.782380D-01
      7.466000D-01           1.544000D-02
      2.248000D-01          -2.864000D-03
S   9   1.00
      9.046000D+03          -1.530000D-04
      1.357000D+03          -1.208000D-03
      3.093000D+02          -5.992000D-03
      8.773000D+01          -2.454400D-02
      2.856000D+01          -6.745900D-02
      1.021000D+01          -1.580780D-01
      3.838000D+00          -1.218310D-01
      7.466000D-01           5.490030D-01
      2.248000D-01           5.788150D-01
S   1   1.00
      2.248000D-01           1.000000D+00
S   1   1.00
      0.0612400              1.0000000
S   1   1.00
      0.03062              1.0000000
S   1   1.00
      0.01531              1.0000000
S   1   1.00
      0.007655              1.0000000
S   1   1.00
      0.0038275              1.0000000
S   1   1.00
      0.00191375              1.0000000
S   1   1.00
      0.000956875              1.0000000
P   4   1.00
      1.355000D+01           3.991900D-02
      2.917000D+00           2.171690D-01
      7.973000D-01           5.103190D-01
      2.185000D-01           4.622140D-01
P   1   1.00
      2.185000D-01           1.000000D+00
P   1   1.00
      0.0561100              1.0000000
P   1   1.00
      0.028055              1.0000000
P   1   1.00
      0.0140275              1.0000000
P   1   1.00
      0.00701375              1.0000000
D   1   1.00
      8.170000D-01           1.0000000
D   1   1.00
      0.2300000              1.0000000
****
O     0
S   9   1.00
      1.172000D+04           7.100000D-04
      1.759000D+03           5.470000D-03
      4.008000D+02           2.783700D-02
      1.137000D+02           1.048000D-01
      3.703000D+01           2.830620D-01
      1.327000D+01           4.487190D-01
      5.025000D+00           2.709520D-01
      1.013000D+00           1.545800D-02
      3.023000D-01          -2.585000D-03
S   9   1.00
      1.172000D+04          -1.600000D-04
      1.759000D+03          -1.263000D-03
      4.008000D+02          -6.267000D-03
      1.137000D+02          -2.571600D-02
      3.703000D+01          -7.092400D-02
      1.327000D+01          -1.654110D-01
      5.025000D+00          -1.169550D-01
      1.013000D+00           5.573680D-01
      3.023000D-01           5.727590D-01
S   1   1.00
      3.023000D-01           1.000000D+00
S   1   1.00
      0.0789600              1.0000000
S   1   1.00
      0.03948              1.0000000
S   1   1.00
      0.01974              1.0000000
S   1   1.00
      0.00987              1.0000000
S   1   1.00
      0.004935              1.0000000
S   1   1.00
      0.0024675              1.0000000
S   1   1.00
      0.00123375              1.0000000
P   4   1.00
      1.770000D+01           4.301800D-02
      3.854000D+00           2.289130D-01
      1.046000D+00           5.087280D-01
      2.753000D-01           4.605310D-01
P   1   1.00
      2.753000D-01           1.000000D+00
P   1   1.00
      0.0685600              1.0000000
P   1   1.00
      0.03428              1.0000000
P   1   1.00
      0.01714              1.0000000
P   1   1.00
      0.00857              1.0000000
D   1   1.00
      1.185000D+00           1.0000000
D   1   1.00
      0.3320000              1.0000000
****
S     0
S   12   1.00
      1.108000D+05           2.476350D-04
      1.661000D+04           1.920260D-03
      3.781000D+03           9.961920D-03
      1.071000D+03           4.029750D-02
      3.498000D+02           1.286040D-01
      1.263000D+02           3.034800D-01
      4.926000D+01           4.214320D-01
      2.016000D+01           2.307810D-01
      5.720000D+00           1.789710D-02
      2.182000D+00          -2.975160D-03
      4.327000D-01           8.495220D-04
      1.570000D-01          -3.679360D-04
S   12   1.00
      1.108000D+05          -6.870390D-05
      1.661000D+04          -5.276810D-04
      3.781000D+03          -2.796710D-03
      1.071000D+03          -1.126510D-02
      3.498000D+02          -3.888340D-02
      1.263000D+02          -9.950250D-02
      4.926000D+01          -1.997400D-01
      2.016000D+01          -1.233600D-01
      5.720000D+00           5.131940D-01
      2.182000D+00           6.071200D-01
      4.327000D-01           3.967530D-02
      1.570000D-01          -9.468640D-03
S   12   1.00
      1.108000D+05           1.990770D-05
      1.661000D+04           1.534830D-04
      3.781000D+03           8.095030D-04
      1.071000D+03           3.289740D-03
      3.498000D+02           1.129670D-02
      1.263000D+02           2.963850D-02
      4.926000D+01           5.998510D-02
      2.016000D+01           4.132480D-02
      5.720000D+00          -2.074740D-01
      2.182000D+00          -3.928890D-01
      4.327000D-01           6.328400D-01
      1.570000D-01           5.569240D-01
S   1   1.00
      1.570000D-01           1.000000D+00
S   1   1.00

             Standard Nuclear Orientation (Angstroms)
    I     Atom           X                Y                Z
 ----------------------------------------------------------------
    1      C      -0.5943761617    -1.8567385057     0.2407715288
    2      C      -2.0014698910    -1.3745647085     0.0565214656
    3      C      -2.2877092510     0.0699140376     0.1130966904
    4      C      -1.2804557398     0.9735950529     0.2871220874
    5      C       0.0924931809     0.4849171414     0.5928037767
    6      C       0.4056345919    -0.9660357943     0.4454054148
    7      O      -2.9030086044    -2.1796656729    -0.1833481753
    8      O       0.9425536683     1.2660560901     1.0238406843
    9      O      -3.5935214085     0.4479440439     0.0254749570
   10      C      -4.0005549959     0.9486284275    -1.2655340860
   11      O      -1.5988654012     2.2837593817     0.3183809775
   12      C      -0.6013129178     3.3063056193     0.0697406829
   13      C      -0.4400781273    -3.3455208705     0.1477839147
   14      C       1.8613472469    -1.3161338494     0.6503586909
   15      C       2.7630190997    -0.8907396467    -0.4828924222
   16      C       3.7466849040     0.0196748944    -0.4532662434
   17      C       4.1441078640     0.8216266325     0.7551506642
   18      C       4.5560713905     0.3043264825    -1.6933745519
   19      H       0.6012197396    -3.6623895369     0.2071800658
   20      H      -0.8730971494    -3.7053448548    -0.7912311561
   21      H      -1.0088354223    -3.8326235755     0.9479049437
   22      H      -3.9168878092     0.1559742948    -2.0172802487
   23      H      -3.3944916489     1.8153875784    -1.5512859237
   24      H      -5.0440371693     1.2440001813    -1.1507579613
   25      H       0.0856362157     2.9968960905    -0.7213789698
   26      H      -0.0422372426     3.5239462281     0.9793322292
   27      H      -1.1826998199     4.1732902093    -0.2493672876
   28      H       1.9535532396    -2.3966428993     0.7965619265
   29      H       2.1873281116    -0.8379462606     1.5794215482
   30      H       2.5723279980    -1.3994956193    -1.4294993935
   31      H       3.5318754591     0.6072370044     1.6312538974
   32      H       4.0507052028     1.8943776655     0.5416447004
   33      H       5.1982246310     0.6369555477     1.0028080009
   34      H       4.4700421354     1.3620814197    -1.9771137283
   35      H       4.2306910097    -0.3086338104    -2.5388873385
   36      H       5.6230093263     0.1126501171    -1.5162185298
 ----------------------------------------------------------------

   21    -840.1099743849      6.74e-11  Convergence criterion met
 Total energy =  -840.10997438
        Solving for EOMEA-CC2/MP2 A transitions.
 EOMEA transition 1/A
 Total energy = -842.96275015 a.u.  Excitation energy = -1.6774 eV.
 EOMEA transition 2/A
 Total energy = -842.90144076 a.u.  Excitation energy = -0.0091 eV.
 Excited state properties for  EOMEA-CC2 transition 1/A
 Excited state properties for  EOMEA-CC2 transition 2/A
 EOM-EA-CC2 state  1/A -- Reference  transition
 EOM-EA-CC2 state  2/A -- Reference  transition

                    Orbital Energies (a.u.)
 --------------------------------------------------------------

 Alpha MOs
 -- Occupied --
-20.6091 -20.5885 -20.5826 -20.5717 -11.3692 -11.3544 -11.3350 -11.3156
-11.2964 -11.2889 -11.2823 -11.2776 -11.2478 -11.2460 -11.2419 -11.2296
-11.2294 -11.2243  -1.4372  -1.4114  -1.3992  -1.3820  -1.1563  -1.1057
 -1.0762  -1.0248  -0.9747  -0.9720  -0.9415  -0.9302  -0.9105  -0.8813
 -0.8086  -0.8054  -0.7487  -0.7139  -0.7051  -0.6915  -0.6659  -0.6610
 -0.6458  -0.6339  -0.6292  -0.6168  -0.6127  -0.6094  -0.5911  -0.5892
 -0.5798  -0.5669  -0.5610  -0.5463  -0.5388  -0.5342  -0.5311  -0.5275
 -0.5207  -0.5159  -0.5111  -0.5084  -0.4751  -0.4697  -0.4379  -0.4318
 -0.3834  -0.3461  -0.3370

          Ground-State Mulliken Net Atomic Charges

     Atom                 Charge (a.u.)
  ----------------------------------------
      1 C                     0.139624
      2 C                     0.185052
      3 C                     0.657644
      4 C                     1.548922
      5 C                    -0.257037
      6 C                     1.082308
      7 O                    -1.274007
      8 O                    -1.017787
      9 O                    -1.010712
     10 C                     0.751805
     11 O                    -1.378948
     12 C                     1.244044
     13 C                     0.704806
     14 C                     1.183114
     15 C                     1.320981
     16 C                    -1.011451
     17 C                     0.975566
     18 C                     0.932812
     19 H                    -0.195767
     20 H                     0.140043
     21 H                     0.051558
     22 H                    -0.136076
     23 H                    -0.187055
     24 H                    -0.423461
     25 H                    -0.212303
     26 H                    -0.089433
     27 H                    -0.590424
     28 H                    -0.325917
     29 H                    -0.185155
     30 H                    -1.086959
     31 H                    -0.520483
     32 H                     0.004583
     33 H                    -0.315965
     34 H                    -0.100625
     35 H                    -0.342824
     36 H                    -0.260471
  ----------------------------------------
  Sum of atomic charges =     0.000000

                    Cartesian Multipole Moments
 -----------------------------------------------------------------
    Charge (ESU x 10^10)
                 0.0000
    Dipole Moment (Debye)
         X       2.8683      Y       1.2427      Z      -1.8210
       Tot       3.6177
    Quadrupole Moments (Debye-Ang)
        XX    -117.2047     XY      -8.0687     YY    -103.4403
        XZ       4.4636     YZ      -5.0914     ZZ    -106.7866

 Total job time:  7313.08s(wall), 195566.06s(cpu)
        *  Thank you very much for using Q-Chem.  Have a nice day.  *
