 Q-Chem 6.2 (devel), Q-Chem, Inc., Pleasanton, CA (2024)
 Q-Chem 6.2.1 for Intel X86 EM64T Linux

User input:
--------------------------------------------------------------
$molecule
0 1
C 0.000000 0.000000 0.000000
C -0.749722 -1.292168 0.019461
C -0.005494 -2.581851 -0.000000
C 1.350480 -2.581588 -0.008315
C 2.101878 -1.293216 -0.000000
C 1.356221 0.000000 0.035758
O -1.979381 -1.299746 0.075388
O 3.330726 -1.313819 -0.037908
O -0.741512 -3.723321 -0.057270
C -1.261633 -4.194676 1.203873
O 2.086485 -3.722328 -0.072208
C 2.620895 -4.188207 1.184057
C -0.879262 1.216449 -0.014173
C 2.224542 1.236047 0.031247
C 2.963846 1.474882 1.325927
C 4.288616 1.462800 1.528707
C 5.320155 1.187888 0.470381
C 4.849577 1.730151 2.902417
H -0.311316 2.141575 0.081754
H -1.611376 1.156873 0.797326
H -1.458834 1.249314 -0.943998
H -0.438911 -4.444640 1.884030
H -1.834070 -5.091584 0.966462
H -1.914312 -3.440039 1.654157
H 1.806594 -4.449176 1.869839
H 3.266745 -3.425448 1.631366
H 3.204015 -5.077121 0.942715
H 1.606809 2.109347 -0.199401
H 2.944678 1.128393 -0.786486
H 2.320559 1.677034 2.184205
H 4.887878 1.021510 -0.516817
H 5.896566 0.291651 0.732571
H 6.031975 2.022069 0.408646
H 5.444926 0.874317 3.248602
H 4.058224 1.919331 3.633687
H 5.523937 2.597038 2.888554
$end
!dih1 100 dih2 -100
$end

$rem
   CCMAN2                       1
   MEM_TOTAL                    1000000
   CC_MEMORY			950000
   MEM_STATIC                   2000
   METHOD                       cc2
   BASIS                        gen
   PURECART                     11
   AUX_BASIS                    rimp2-aug-cc-pVDZ
   N_FROZEN_CORE                fc
   EA_STATES                    [2]
   SCF_CONVERGENCE              10
   MAX_SCF_CYCLES               200
   CC_CONVERGENCE               8
   EOM_DAVIDSON_CONVERGENCE     8
   CC_TRANS_PROP		TRUE
   CC_DO_DYSON			TRUE
   CC_EOM_PROP			TRUE
   !PRINT_ORBITALS               TRUE
$end

$basis
H     0
S   4   1.00
      1.301000D+01           1.968500D-02
      1.962000D+00           1.379770D-01
      4.446000D-01           4.781480D-01
      1.220000D-01           5.012400D-01
S   1   1.00
      1.220000D-01           1.000000D+00
S   1   1.00
      0.0297400              1.0000000
S   1   1.00
      0.01487              1.0000000
S   1   1.00
      0.007435              1.0000000
S   1   1.00
      0.0037175              1.0000000
P   1   1.00
      7.270000D-01           1.0000000
P   1   1.00
      0.1410000              1.0000000
****
C     0
S   9   1.00
      6.665000D+03           6.920000D-04
      1.000000D+03           5.329000D-03
      2.280000D+02           2.707700D-02
      6.471000D+01           1.017180D-01
      2.106000D+01           2.747400D-01
      7.495000D+00           4.485640D-01
      2.797000D+00           2.850740D-01
      5.215000D-01           1.520400D-02
      1.596000D-01          -3.191000D-03
S   9   1.00
      6.665000D+03          -1.460000D-04
      1.000000D+03          -1.154000D-03
      2.280000D+02          -5.725000D-03
      6.471000D+01          -2.331200D-02
      2.106000D+01          -6.395500D-02
      7.495000D+00          -1.499810D-01
      2.797000D+00          -1.272620D-01
      5.215000D-01           5.445290D-01
      1.596000D-01           5.804960D-01
S   1   1.00
      1.596000D-01           1.000000D+00
S   1   1.00
      0.0469000              1.0000000
S   1   1.00
      0.02345              1.0000000
S   1   1.00
      0.011725              1.0000000
S   1   1.00
      0.0058625              1.0000000
S   1   1.00
      0.00293125              1.0000000
S   1   1.00
      0.00146562              1.0000000
S   1   1.00
      0.00073281              1.0000000
P   4   1.00
      9.439000D+00           3.810900D-02
      2.002000D+00           2.094800D-01
      5.456000D-01           5.085570D-01
      1.517000D-01           4.688420D-01
P   1   1.00
      1.517000D-01           1.000000D+00
P   1   1.00
      0.0404100              1.0000000
P   1   1.00
      0.020205              1.0000000
P   1   1.00
      0.0101025              1.0000000
P   1   1.00
      0.00505125              1.0000000
D   1   1.00
      5.500000D-01           1.0000000
D   1   1.00
      0.1510000              1.0000000
****
N     0
S   9   1.00
      9.046000D+03           7.000000D-04
      1.357000D+03           5.389000D-03
      3.093000D+02           2.740600D-02
      8.773000D+01           1.032070D-01
      2.856000D+01           2.787230D-01
      1.021000D+01           4.485400D-01
      3.838000D+00           2.782380D-01
      7.466000D-01           1.544000D-02
      2.248000D-01          -2.864000D-03
S   9   1.00
      9.046000D+03          -1.530000D-04
      1.357000D+03          -1.208000D-03
      3.093000D+02          -5.992000D-03
      8.773000D+01          -2.454400D-02
      2.856000D+01          -6.745900D-02
      1.021000D+01          -1.580780D-01
      3.838000D+00          -1.218310D-01
      7.466000D-01           5.490030D-01
      2.248000D-01           5.788150D-01
S   1   1.00
      2.248000D-01           1.000000D+00
S   1   1.00
      0.0612400              1.0000000
S   1   1.00
      0.03062              1.0000000
S   1   1.00
      0.01531              1.0000000
S   1   1.00
      0.007655              1.0000000
S   1   1.00
      0.0038275              1.0000000
S   1   1.00
      0.00191375              1.0000000
S   1   1.00
      0.000956875              1.0000000
P   4   1.00
      1.355000D+01           3.991900D-02
      2.917000D+00           2.171690D-01
      7.973000D-01           5.103190D-01
      2.185000D-01           4.622140D-01
P   1   1.00
      2.185000D-01           1.000000D+00
P   1   1.00
      0.0561100              1.0000000
P   1   1.00
      0.028055              1.0000000
P   1   1.00
      0.0140275              1.0000000
P   1   1.00
      0.00701375              1.0000000
D   1   1.00
      8.170000D-01           1.0000000
D   1   1.00
      0.2300000              1.0000000
****
O     0
S   9   1.00
      1.172000D+04           7.100000D-04
      1.759000D+03           5.470000D-03
      4.008000D+02           2.783700D-02
      1.137000D+02           1.048000D-01
      3.703000D+01           2.830620D-01
      1.327000D+01           4.487190D-01
      5.025000D+00           2.709520D-01
      1.013000D+00           1.545800D-02
      3.023000D-01          -2.585000D-03
S   9   1.00
      1.172000D+04          -1.600000D-04
      1.759000D+03          -1.263000D-03
      4.008000D+02          -6.267000D-03
      1.137000D+02          -2.571600D-02
      3.703000D+01          -7.092400D-02
      1.327000D+01          -1.654110D-01
      5.025000D+00          -1.169550D-01
      1.013000D+00           5.573680D-01
      3.023000D-01           5.727590D-01
S   1   1.00
      3.023000D-01           1.000000D+00
S   1   1.00
      0.0789600              1.0000000
S   1   1.00
      0.03948              1.0000000
S   1   1.00
      0.01974              1.0000000
S   1   1.00
      0.00987              1.0000000
S   1   1.00
      0.004935              1.0000000
S   1   1.00
      0.0024675              1.0000000
S   1   1.00
      0.00123375              1.0000000
P   4   1.00
      1.770000D+01           4.301800D-02
      3.854000D+00           2.289130D-01
      1.046000D+00           5.087280D-01
      2.753000D-01           4.605310D-01
P   1   1.00
      2.753000D-01           1.000000D+00
P   1   1.00
      0.0685600              1.0000000
P   1   1.00
      0.03428              1.0000000
P   1   1.00
      0.01714              1.0000000
P   1   1.00
      0.00857              1.0000000
D   1   1.00
      1.185000D+00           1.0000000
D   1   1.00
      0.3320000              1.0000000
****
S     0
S   12   1.00
      1.108000D+05           2.476350D-04
      1.661000D+04           1.920260D-03
      3.781000D+03           9.961920D-03
      1.071000D+03           4.029750D-02
      3.498000D+02           1.286040D-01
      1.263000D+02           3.034800D-01
      4.926000D+01           4.214320D-01
      2.016000D+01           2.307810D-01
      5.720000D+00           1.789710D-02
      2.182000D+00          -2.975160D-03
      4.327000D-01           8.495220D-04
      1.570000D-01          -3.679360D-04
S   12   1.00
      1.108000D+05          -6.870390D-05
      1.661000D+04          -5.276810D-04
      3.781000D+03          -2.796710D-03
      1.071000D+03          -1.126510D-02
      3.498000D+02          -3.888340D-02
      1.263000D+02          -9.950250D-02
      4.926000D+01          -1.997400D-01
      2.016000D+01          -1.233600D-01
      5.720000D+00           5.131940D-01
      2.182000D+00           6.071200D-01
      4.327000D-01           3.967530D-02
      1.570000D-01          -9.468640D-03
S   12   1.00
      1.108000D+05           1.990770D-05
      1.661000D+04           1.534830D-04
      3.781000D+03           8.095030D-04
      1.071000D+03           3.289740D-03
      3.498000D+02           1.129670D-02
      1.263000D+02           2.963850D-02
      4.926000D+01           5.998510D-02
      2.016000D+01           4.132480D-02
      5.720000D+00          -2.074740D-01
      2.182000D+00          -3.928890D-01
      4.327000D-01           6.328400D-01
      1.570000D-01           5.569240D-01
S   1   1.00
      1.570000D-01           1.000000D+00
S   1   1.00

             Standard Nuclear Orientation (Angstroms)
    I     Atom           X                Y                Z
 ----------------------------------------------------------------
    1      C      -0.5242172589    -1.8296566089     0.2171523293
    2      C      -1.9321045577    -1.3581868629     0.0506303168
    3      C      -2.2557939306     0.0854462369     0.2199966355
    4      C      -1.2690880924     0.9729370646     0.4983961983
    5      C       0.1415663081     0.5091219462     0.6380393233
    6      C       0.4689762460    -0.9358819083     0.4524127842
    7      O      -2.8246870851    -2.1510430534    -0.2492396626
    8      O       1.0173523578     1.3248122995     0.9201331900
    9      O      -3.5641513331     0.4435892193     0.1311674642
   10      C      -4.0728945729     0.6225383067    -1.2076157883
   11      O      -1.5056428936     2.2945183384     0.7094369189
   12      C      -1.2432713165     3.1599586257    -0.4144017287
   13      C      -0.3528433126    -3.3118997511     0.0539440382
   14      C       1.9279039665    -1.2858965194     0.6280076953
   15      C       2.8167209938    -0.8046966546    -0.4937141267
   16      C       3.8034909627     0.0999010561    -0.4283745042
   17      C       4.2152673405     0.8380343406     0.8147275462
   18      C       4.5931018943     0.4536374223    -1.6631287813
   19      H       0.6940091213    -3.6142350038     0.0717243819
   20      H      -0.8066298634    -3.6383840497    -0.8870961335
   21      H      -0.8898287216    -3.8412513347     0.8495519275
   22      H      -3.5407829328     1.4390323989    -1.7097727708
   23      H      -5.1249513201     0.8819341700    -1.0876889396
   24      H      -3.9771483145    -0.3055341330    -1.7800987664
   25      H      -1.9101778314     2.9123630453    -1.2483202008
   26      H      -0.1966205511     3.0766010177    -0.7251790455
   27      H      -1.4487971491     4.1703215987    -0.0603271748
   28      H       2.0283324804    -2.3708126035     0.7295786222
   29      H       2.2601507384    -0.8438246985     1.5730246736
   30      H       2.6096499695    -1.2611701592    -1.4632904524
   31      H       3.6438200062     0.5455832238     1.6962178883
   32      H       4.0740305849     1.9171520836     0.6740467987
   33      H       5.2828766303     0.6763895407     1.0158201276
   34      H       4.5050517681     1.5264378592    -1.8824065032
   35      H       4.2508084545    -0.1073280455    -2.5377357793
   36      H       5.6623505405     0.2495704965    -1.5164635658
 ----------------------------------------------------------------

   20    -840.1116277850      9.75e-11  Convergence criterion met
 Total energy =  -840.11162779
        Solving for EOMEA-CC2/MP2 A transitions.
 EOMEA transition 1/A
 Total energy = -842.96164597 a.u.  Excitation energy = -1.7381 eV.
 EOMEA transition 2/A
 Total energy = -842.89802860 a.u.  Excitation energy = -0.0069 eV.
 Excited state properties for  EOMEA-CC2 transition 1/A
 Excited state properties for  EOMEA-CC2 transition 2/A
 EOM-EA-CC2 state  1/A -- Reference  transition
 EOM-EA-CC2 state  2/A -- Reference  transition

                    Orbital Energies (a.u.)
 --------------------------------------------------------------

 Alpha MOs
 -- Occupied --
-20.5973 -20.5970 -20.5796 -20.5778 -11.3613 -11.3603 -11.3281 -11.3265
-11.2980 -11.2973 -11.2830 -11.2800 -11.2477 -11.2436 -11.2434 -11.2274
-11.2271 -11.2216  -1.4334  -1.4158  -1.3953  -1.3876  -1.1565  -1.1040
 -1.0762  -1.0246  -0.9751  -0.9697  -0.9390  -0.9348  -0.9097  -0.8813
 -0.8110  -0.8042  -0.7518  -0.7121  -0.7073  -0.6906  -0.6619  -0.6598
 -0.6493  -0.6335  -0.6282  -0.6232  -0.6208  -0.6078  -0.5951  -0.5916
 -0.5830  -0.5669  -0.5551  -0.5483  -0.5371  -0.5323  -0.5320  -0.5304
 -0.5229  -0.5177  -0.5091  -0.4860  -0.4735  -0.4707  -0.4355  -0.4338
 -0.3877  -0.3619  -0.3364

          Ground-State Mulliken Net Atomic Charges

     Atom                 Charge (a.u.)
  ----------------------------------------
      1 C                     0.350500
      2 C                    -0.000339
      3 C                     1.281016
      4 C                     1.336080
      5 C                    -0.521890
      6 C                     1.030028
      7 O                    -1.241035
      8 O                    -0.968443
      9 O                    -1.018594
     10 C                     0.886787
     11 O                    -1.428264
     12 C                     0.872386
     13 C                     0.735644
     14 C                     1.130361
     15 C                     1.410049
     16 C                    -0.895148
     17 C                     0.872533
     18 C                     0.903105
     19 H                    -0.277589
     20 H                     0.078049
     21 H                     0.063563
     22 H                    -0.243884
     23 H                    -0.360335
     24 H                    -0.179299
     25 H                    -0.227692
     26 H                    -0.209225
     27 H                    -0.444732
     28 H                    -0.239566
     29 H                    -0.193393
     30 H                    -1.108207
     31 H                    -0.426708
     32 H                    -0.006309
     33 H                    -0.312352
     34 H                    -0.049135
     35 H                    -0.374260
     36 H                    -0.223703
  ----------------------------------------
  Sum of atomic charges =     0.000000

                    Cartesian Multipole Moments
 -----------------------------------------------------------------
    Charge (ESU x 10^10)
                 0.0000
    Dipole Moment (Debye)
         X       1.4805      Y       0.2395      Z      -2.6589
       Tot       3.0527
    Quadrupole Moments (Debye-Ang)
        XX    -112.4295     XY      -8.5619     YY    -105.9501
        XZ       6.3855     YZ      -7.9023     ZZ    -107.2997

 Total job time:  8398.70s(wall), 221574.25s(cpu)
        *  Thank you very much for using Q-Chem.  Have a nice day.  *
